LAMMPS (29 Aug 2024 - Update 1)
#INIT
units real
boundary p p p
atom_style full

#atom_modify map array
pair_style lj/cut 13
bond_style harmonic
angle_style harmonic
dihedral_style harmonic

read_data ./PDMS_50.data
Reading data file ...
  orthogonal box = (-52.9512 -52.9512 -52.9512) to (52.9512 52.9512 52.9512)
  1 by 1 by 1 MPI processor grid
WARNING: Dihedral style charmm in data file differs from currently defined dihedral style harmonic (../read_data.cpp:835)
  reading atoms ...
  50 atoms
  scanning bonds ...
  1 = max bonds/atom
  scanning angles ...
  1 = max angles/atom
  scanning dihedrals ...
  1 = max dihedrals/atom
  orthogonal box = (-52.9512 -52.9512 -52.9512) to (52.9512 52.9512 52.9512)
  1 by 1 by 1 MPI processor grid
  reading bonds ...
  49 bonds
  reading angles ...
  48 angles
  reading dihedrals ...
  47 dihedrals
Finding 1-2 1-3 1-4 neighbors ...
  special bond factors lj:    0        0        0       
  special bond factors coul:  0        0        0       
     2 = max # of 1-2 neighbors
     2 = max # of 1-3 neighbors
     4 = max # of 1-4 neighbors
     6 = max # of special neighbors
  special bonds CPU = 0.000 seconds
  read_data CPU = 0.003 seconds

neighbor 1.8 bin
pair_modify shift no tail yes mix arithmetic
# special_bonds lj/coul 0.0 0.0 0.0

timestep 0.5
thermo 1000
thermo_style custom step temp press vol epair emol etotal enthalpy

velocity all create 300 1234567 rot yes dist gaussian

minimize 1.0e-10 1.0e-11 100000 100000

CITE-CITE-CITE-CITE-CITE-CITE-CITE-CITE-CITE-CITE-CITE-CITE-CITE

Your simulation uses code contributions which should be cited:

- Type Label Framework: https://doi.org/10.1021/acs.jpcb.3c08419

@Article{Gissinger24,
 author = {Jacob R. Gissinger, Ilia Nikiforov, Yaser Afshar, Brendon Waters, Moon-ki Choi, Daniel S. Karls, Alexander Stukowski, Wonpil Im, Hendrik Heinz, Axel Kohlmeyer, and Ellad B. Tadmor},
 title = {Type Label Framework for Bonded Force Fields in LAMMPS},
 journal = {J. Phys. Chem. B},
 year =    2024,
 volume =  128,
 number =  13,
 pages =   {3282–-3297}
}

CITE-CITE-CITE-CITE-CITE-CITE-CITE-CITE-CITE-CITE-CITE-CITE-CITE

Generated 1 of 1 mixed pair_coeff terms from arithmetic mixing rule
Neighbor list info ...
  update: every = 1 steps, delay = 0 steps, check = yes
  max neighbors/atom: 2000, page size: 100000
  master list distance cutoff = 14.8
  ghost atom cutoff = 14.8
  binsize = 7.4, bins = 15 15 15
  1 neighbor lists, perpetual/occasional/extra = 1 0 0
  (1) pair lj/cut, perpetual
      attributes: half, newton on
      pair build: half/bin/newton
      stencil: half/bin/3d
      bin: standard
Per MPI rank memory allocation (min/avg/max) = 8.156 | 8.156 | 8.156 Mbytes
   Step          Temp          Press          Volume         E_pair         E_mol          TotEng        Enthalpy   
         0   300            140569.41      1187729.1      607755.84      151.38812      607951.04      3042867.8    
       372   300            1.6668248      1187729.1     -84.54473       18.075481     -22.651341      6.2210832    
Loop time of 0.00603719 on 1 procs for 372 steps with 50 atoms

100.0% CPU use with 1 MPI tasks x no OpenMP threads

Minimization stats:
  Stopping criterion = linesearch alpha is zero
  Energy initial, next-to-last, final = 
      607907.226375453  -66.4692484996334  -66.4692484996334
  Force two-norm initial, final = 4967313.2 0.49310854
  Force max component initial, final = 3346423.1 0.19577783
  Final line search alpha, max atom move = 3.6369474e-08 7.1203367e-09
  Iterations, force evaluations = 372 613

MPI task timing breakdown:
Section |  min time  |  avg time  |  max time  |%varavg| %total
---------------------------------------------------------------
Pair    | 0.0024165  | 0.0024165  | 0.0024165  |   0.0 | 40.03
Bond    | 0.0023367  | 0.0023367  | 0.0023367  |   0.0 | 38.71
Neigh   | 0.00061385 | 0.00061385 | 0.00061385 |   0.0 | 10.17
Comm    | 0.00022166 | 0.00022166 | 0.00022166 |   0.0 |  3.67
Output  | 0          | 0          | 0          |   0.0 |  0.00
Modify  | 0          | 0          | 0          |   0.0 |  0.00
Other   |            | 0.0004485  |            |       |  7.43

Nlocal:             50 ave          50 max          50 min
Histogram: 1 0 0 0 0 0 0 0 0 0
Nghost:             25 ave          25 max          25 min
Histogram: 1 0 0 0 0 0 0 0 0 0
Neighs:            459 ave         459 max         459 min
Histogram: 1 0 0 0 0 0 0 0 0 0

Total # of neighbors = 459
Ave neighs/atom = 9.18
Ave special neighs/atom = 5.76
Neighbor list builds = 34
Dangerous builds = 0

# -----------------------------------------------------
# 5. 计算均方回转半径
# -----------------------------------------------------
# 使用compute gyration命令计算整个体系的回转半径
fix             equil all nvt temp 300.0 300.0 100.0
variable        d_end equal "sqrt((x[1]-x[50])^2 + (y[1]-y[50])^2 + (z[1]-z[50])^2)"
compute         rg all gyration
fix             avg all ave/time 1000 500 1000000 c_rg v_d_end file avg.txt
# 输出热力学信息及回转半径数据，每隔1000步输出一次
thermo_style    custom step temp pe ke etotal c_rg v_d_end
thermo          10000
# 输出轨迹文件，便于后续可视化与分析
dump            traj all custom 1000 dump.pdms.lammpstrj id type x y z
# 运行模拟，记录回转半径数据（后续可统计分析均值与波动）
run             1000000
Generated 1 of 1 mixed pair_coeff terms from arithmetic mixing rule
Per MPI rank memory allocation (min/avg/max) = 7.031 | 7.031 | 7.031 Mbytes
   Step          Temp          PotEng         KinEng         TotEng          c_rg         v_d_end    
       372   300           -66.469248      43.817908     -22.651341      15.516518      31.056502    
     10000   301.61057     -23.912814      44.053147      20.140333      14.563983      23.717001    
     20000   340.70038     -35.4608        49.762593      14.301794      11.888047      19.235361    
     30000   222.80711     -51.096371      32.543138     -18.553232      9.6451811      8.951375     
     40000   339.81442     -44.365443      49.633189      5.2677458      8.4970086      10.844344    
     50000   290.21689     -48.360723      42.38899      -5.9717326      8.4292194      9.8179333    
     60000   311.781       -76.683567      45.538636     -31.144931      7.7823592      9.9330846    
     70000   331.30971     -81.766093      48.390994     -33.375099      7.7630066      9.1062209    
     80000   352.04267     -81.322545      51.419244     -29.903301      8.0081713      10.661407    
     90000   274.56291     -78.292439      40.102574     -38.189865      8.2182133      9.632364     
    100000   286.42265     -86.956017      41.834805     -45.121212      8.059703       9.9521436    
    110000   321.24951     -82.154238      46.921604     -35.232634      7.8120807      10.071312    
    120000   299.56183     -88.34038       43.753909     -44.586471      7.6574844      9.76338      
    130000   267.90621     -85.67932       39.130299     -46.549021      7.8390974      12.224613    
    140000   302.94286     -88.073011      44.247741     -43.825271      7.8254241      8.8428382    
    150000   355.2253      -75.619148      51.884098     -23.73505       7.8835229      9.5411544    
    160000   301.66355     -85.676685      44.060886     -41.615798      7.6769207      9.634931     
    170000   327.02876     -75.300045      47.76572      -27.534325      8.0656136      9.2243889    
    180000   290.5209      -82.268496      42.433393     -39.835103      8.0436393      5.7680302    
    190000   311.12008     -89.271923      45.442103     -43.829819      7.7605532      5.7062242    
    200000   347.50836     -81.7802        50.756964     -31.023236      7.8961137      5.599167     
    210000   378.24604     -82.585737      55.2465       -27.339237      7.5207389      7.0233971    
    220000   311.06159     -89.92592       45.43356      -44.49236       7.8155501      6.7647865    
    230000   272.66645     -83.272758      39.825577     -43.447181      7.7146694      5.650568     
    240000   287.71607     -85.492818      42.02372      -43.469097      8.075672       5.6341906    
    250000   351.10997     -91.153433      51.283014     -39.870419      7.8202254      7.744899     
    260000   332.57231     -86.64379       48.575409     -38.068381      7.6608562      10.59802     
    270000   301.23256     -77.573841      43.997935     -33.575907      7.7827323      12.497592    
    280000   310.91293     -81.590796      45.411847     -36.17895       7.8433597      11.359601    
    290000   286.2055      -87.314447      41.803088     -45.511359      7.6621658      15.050375    
    300000   290.59547     -86.643579      42.444285     -44.199295      7.5461781      14.727678    
    310000   249.61908     -89.510578      36.459287     -53.051291      7.6051252      19.768499    
    320000   250.65168     -74.185073      36.610107     -37.574966      7.7469165      20.391633    
    330000   254.78109     -80.034186      37.213248     -42.820938      7.7794319      18.59724     
    340000   282.08404     -79.288428      41.201108     -38.08732       7.4952704      13.756986    
    350000   348.0376      -89.931141      50.834265     -39.096876      7.6026323      11.931552    
    360000   288.53444     -91.964585      42.143251     -49.821334      7.5427902      14.432863    
    370000   313.28577     -91.738175      45.758423     -45.979752      7.6511838      15.665806    
    380000   235.46732     -85.653797      34.392285     -51.261512      7.6913114      15.184543    
    390000   305.51756     -93.078499      44.623801     -48.454698      7.6276396      11.983661    
    400000   231.7625      -93.826716      33.851159     -59.975557      7.6795497      12.706874    
    410000   288.63025     -90.60739       42.157246     -48.450145      7.4419669      10.984019    
    420000   337.49421     -79.494319      49.2943       -30.200019      7.5791627      12.388509    
    430000   286.02147     -99.194011      41.776208     -57.417803      7.5325927      11.96699     
    440000   283.51256     -90.804842      41.409757     -49.395085      7.7316653      12.292205    
    450000   336.11561     -92.671259      49.092943     -43.578316      7.5764079      12.341602    
    460000   302.36109     -95.797675      44.162767     -51.634908      7.5295674      14.466418    
    470000   341.18746     -86.529723      49.833736     -36.695986      7.6421847      16.181694    
    480000   332.83429     -101.16424      48.613675     -52.550564      7.4506868      17.332529    
    490000   338.09342     -92.941497      49.381822     -43.559676      7.5747043      19.663676    
    500000   270.44852     -94.095517      39.501628     -54.593889      7.6551073      19.727442    
    510000   262.21125     -85.86106       38.298495     -47.562564      7.6451941      19.409413    
    520000   283.90343     -87.367743      41.466848     -45.900895      7.5976474      21.859856    
    530000   362.09473     -77.988763      52.887444     -25.101319      7.8866982      16.26601     
    540000   294.05624     -94.315289      42.949765     -51.365524      7.6178125      15.967603    
    550000   248.43462     -70.956531      36.286284     -34.670247      7.7957005      15.718766    
    560000   312.13658     -86.484164      45.590573     -40.893591      7.7154053      15.024264    
    570000   320.53153     -92.497081      46.816737     -45.680344      7.4944072      15.02891     
    580000   342.24385     -84.230562      49.988031     -34.242531      7.5908352      17.109858    
    590000   252.94898     -87.012792      36.945651     -50.067142      7.520651       17.087416    
    600000   266.23414     -83.801985      38.886077     -44.915908      7.7002782      15.779002    
    610000   329.45484     -93.343249      48.120072     -45.223177      7.4451825      13.506146    
    620000   277.2039      -82.024384      40.488316     -41.536067      7.6841449      13.912756    
    630000   317.96219     -71.579139      46.44146      -25.137679      7.725553       16.846253    
    640000   241.28587     -94.307201      35.24214      -59.065061      7.4081685      16.032259    
    650000   344.49625     -96.449747      50.317017     -46.13273       7.5694443      14.32452     
    660000   259.2423      -91.095076      37.864851     -53.230225      7.5555533      13.23378     
    670000   259.70308     -95.91377       37.932152     -57.981618      7.4881033      14.493022    
    680000   334.79546     -98.605401      48.900121     -49.70528       7.4702229      13.670279    
    690000   286.16398     -97.552501      41.797023     -55.755478      7.3935182      16.367822    
    700000   252.32235     -82.256056      36.854125     -45.401931      7.8878087      19.021064    
    710000   298.58314     -90.79686       43.610961     -47.185899      7.6635513      15.942313    
    720000   302.90014     -84.349717      44.241501     -40.108216      7.6920038      14.810224    
    730000   276.4841      -89.462211      40.383183     -49.079028      7.8082018      13.122261    
    740000   322.76261     -82.771914      47.142608     -35.629306      7.6909651      15.436526    
    750000   333.85527     -83.898472      48.762798     -35.135674      7.6644036      15.47061     
    760000   322.08538     -79.666586      47.043692     -32.622894      7.6451609      17.153767    
    770000   351.09037     -74.613451      51.280151     -23.3333        7.7237612      14.635949    
    780000   281.74526     -87.360012      41.151626     -46.208386      7.7998255      15.470962    
    790000   333.26311     -94.610455      48.676307     -45.934148      7.6577152      16.135178    
    800000   331.77925     -82.616046      48.459575     -34.156471      7.6074954      17.341839    
    810000   337.63054     -86.224691      49.314212     -36.910479      7.6355371      16.179813    
    820000   280.63465     -81.560785      40.989411     -40.571374      7.7252925      15.034269    
    830000   202.23786     -88.68477       29.5388       -59.14597       7.5823856      17.914344    
    840000   264.39682     -91.272798      38.617719     -52.655079      7.7316732      18.416124    
    850000   245.65153     -93.642863      35.879787     -57.763076      7.4927733      16.87348     
    860000   274.69159     -97.879994      40.12137      -57.758624      7.5485595      16.010616    
    870000   296.12572     -94.93135       43.252032     -51.679318      7.5576385      15.323083    
    880000   292.79125     -88.636701      42.765        -45.871701      7.5510077      14.714992    
    890000   302.70842     -86.966128      44.213499     -42.752629      7.5040599      16.507281    
    900000   299.88164     -86.55021       43.80062      -42.74959       7.5167588      15.388884    
    910000   315.26063     -83.093676      46.046871     -37.046805      7.6652977      16.129976    
    920000   293.36869     -100.1078       42.84934      -57.258465      7.4608515      16.924617    
    930000   275.83649     -88.803837      40.288592     -48.515245      7.6911         19.6345      
    940000   283.64548     -82.654671      41.429171     -41.225499      7.8583866      22.63546     
    950000   284.07246     -95.680156      41.491536     -54.18862       7.5930406      17.113243    
    960000   290.44102     -94.127513      42.421727     -51.705786      7.6405429      17.760489    
    970000   274.83413     -92.0073        40.142188     -51.865112      7.6234163      16.186247    
    980000   303.79447     -87.703784      44.372127     -43.331657      7.6780112      13.60009     
    990000   266.68371     -90.391542      38.951741     -51.439801      7.658807       16.526249    
   1000000   312.72458     -77.799322      45.676455     -32.122867      7.8433981      17.104839    
   1000372   271.40884     -85.720329      39.641892     -46.078437      7.8470362      18.051821    
Loop time of 9.18608 on 1 procs for 1000000 steps with 50 atoms

Performance: 4702.768 ns/day, 0.005 hours/ns, 108860.365 timesteps/s, 5.443 Matom-step/s
99.4% CPU use with 1 MPI tasks x no OpenMP threads

MPI task timing breakdown:
Section |  min time  |  avg time  |  max time  |%varavg| %total
---------------------------------------------------------------
Pair    | 4.563      | 4.563      | 4.563      |   0.0 | 49.67
Bond    | 3.21       | 3.21       | 3.21       |   0.0 | 34.94
Neigh   | 0.071055   | 0.071055   | 0.071055   |   0.0 |  0.77
Comm    | 0.11726    | 0.11726    | 0.11726    |   0.0 |  1.28
Output  | 0.064397   | 0.064397   | 0.064397   |   0.0 |  0.70
Modify  | 0.98918    | 0.98918    | 0.98918    |   0.0 | 10.77
Other   |            | 0.1712     |            |       |  1.86

Nlocal:             50 ave          50 max          50 min
Histogram: 1 0 0 0 0 0 0 0 0 0
Nghost:              8 ave           8 max           8 min
Histogram: 1 0 0 0 0 0 0 0 0 0
Neighs:            899 ave         899 max         899 min
Histogram: 1 0 0 0 0 0 0 0 0 0

Total # of neighbors = 899
Ave neighs/atom = 17.98
Ave special neighs/atom = 5.76
Neighbor list builds = 2939
Dangerous builds = 0
unfix           equil
# -----------------------------------------------------
# 6. 数据输出
# -----------------------------------------------------


# 写出最终体系数据文件
write_data      pdms_out.data
System init for write_data ...
Generated 1 of 1 mixed pair_coeff terms from arithmetic mixing rule
Total wall time: 0:00:09
