LAMMPS data file via write_data, version 29 Aug 2024, timestep = 1000372, units = real

50 atoms
2 atom types
49 bonds
1 bond types
48 angles
1 angle types
47 dihedrals
1 dihedral types

-52.9512 52.9512 xlo xhi
-52.9512 52.9512 ylo yhi
-52.9512 52.9512 zlo zhi

Masses

1 72
2 72

Pair Coeffs # lj/cut

1 0.7333 5.1
2 0.7333 5.1

Bond Coeffs # harmonic

1 13.7395 4.48

Angle Coeffs # harmonic

1 5.8397 86

Dihedral Coeffs # harmonic

1 0.33445 1 1

Atoms # full

13 1 2 0 -30.775413172574297 -0.5686643033708272 -9.464097835693584 0 0 0
16 1 2 0 -30.010328171474047 -3.64932826799738 -8.356065960615197 0 0 0
50 1 1 0 -36.62142165712496 -11.199032629109865 -2.310504801090816 0 0 0
19 1 2 0 -31.475600529457513 -7.530992004156283 -0.9916776333729449 0 0 0
22 1 2 0 -30.926551860443244 -7.7329499822983605 0.15392595646472404 0 0 0
21 1 2 0 -27.033624051632184 -8.941636332375277 -0.7245356510638012 0 0 0
20 1 2 0 -29.304905261573623 -8.430087628545754 -4.4865147624917 0 0 0
40 1 2 0 -40.5313160708213 -7.311047357677548 -1.2405042621359876 0 0 0
38 1 2 0 -38.732171880720124 -2.4793156527631615 -2.780643476335379 0 0 0
15 1 2 0 -33.81057795649304 -3.93396409732428 -5.974281849268787 0 0 0
14 1 2 0 -34.95267156314287 -0.5534926665174358 -8.664192051057158 0 0 0
18 1 2 0 -34.16712780174305 -6.513181446635919 -4.301513514809394 0 0 0
17 1 2 0 -29.86586331817933 -7.260605180125241 -6.042138332703058 0 0 0
11 1 2 0 -30.396038258244296 -1.8755799908703787 -2.1101732471166588 0 0 0
7 1 2 0 -25.205299506088867 -3.7062085128899396 -1.1249889209283928 0 0 0
8 1 2 0 -29.458435025217035 -2.8991788118258275 -2.0555012017499474 0 0 0
9 1 2 0 -28.01341464458009 0.24592430972210066 -4.900139785400757 0 0 0
37 1 2 0 -38.48615992927729 1.292164662809587 -0.3718181945125611 0 0 0
36 1 2 0 -34.71454688961724 1.1916750297796694 -2.6731919303282665 0 0 0
10 1 2 0 -29.78296032928395 2.569634187177311 -1.7673410332591304 0 0 0
12 1 2 0 -30.022914090387538 1.0723627186092057 -5.593939379014696 0 0 0
45 1 2 0 -36.85717093462827 -9.97913112903198 7.804146920795053 0 0 0
48 1 2 0 -31.151906040329816 -14.530381764679154 1.9102170406887764 0 0 0
47 1 2 0 -32.70156124465068 -14.660309618650471 6.016107471295539 0 0 0
49 1 2 0 -34.714996637041494 -11.583852288719758 1.5217751678192595 0 0 0
46 1 2 0 -35.01435767241229 -11.441266820988464 3.7792670266961403 0 0 0
24 1 2 0 -25.11285565499375 -8.703052030264582 1.637119750616968 0 0 0
25 1 2 0 -24.596399951322564 -7.715830493957439 5.957122447343739 0 0 0
23 1 2 0 -28.885459328896427 -9.294858714747932 3.9953164010579374 0 0 0
26 1 2 0 -28.555412072492473 -9.535000628886912 5.228209189997455 0 0 0
44 1 2 0 -38.99351679026799 -7.025487495532053 5.0482212237377935 0 0 0
39 1 2 0 -42.43345794972502 -3.6316990728961307 -0.726793693225537 0 0 0
42 1 2 0 -41.480995640576026 -2.9925510535902817 2.8801543094424686 0 0 0
43 1 2 0 -41.68114899804359 -4.0070257324755545 6.913703110077979 0 0 0
41 1 2 0 -38.804911415223685 -6.90387287498092 2.624467728226677 0 0 0
35 1 2 0 -35.29242537093891 -2.1249577064329217 0.19979171718216227 0 0 0
31 1 2 0 -33.61164390511718 -5.665375005517669 4.905159200147559 0 0 0
32 1 2 0 -34.88273251205481 -4.074914224000972 0.8352001852342719 0 0 0
33 1 2 0 -36.29390674282575 -2.18472769183688 4.519303157999843 0 0 0
28 1 2 0 -33.37553040181417 -6.647845238407074 5.763362478183719 0 0 0
30 1 2 0 -36.21231851661989 -2.3175091231287857 6.310865615654093 0 0 0
4 1 2 0 -30.830824959787886 -0.06013965755334274 3.277353043771766 0 0 0
6 1 2 0 -27.868758616444186 -4.010041667518146 2.339805485713793 0 0 0
3 1 2 0 -28.55519769200505 -3.842435398868335 3.5180424163342603 0 0 0
2 1 2 0 -27.895968523135696 -4.352005195296679 7.898503375290802 0 0 0
1 1 1 0 -23.894972975565576 -2.0320715106757734 6.626640916877827 0 0 0
34 1 2 0 -36.41481858025692 1.563358815388663 2.3958318123565627 0 0 0
5 1 2 0 -26.463835263890434 0.08896573383534667 1.9489782647400054 0 0 0
27 1 2 0 -31.25060999085416 -8.563075879552489 8.933114015509506 0 0 0
29 1 2 0 -36.15701465030015 -5.3670095741514245 9.372830086663438 0 0 0

Velocities

13 -0.00099727441798654 -0.001463277368327241 -0.002772606660817911
16 -0.0006463240602091543 0.0005384566797020345 0.0010729667893883096
50 0.0025861344259024356 -0.0018569376635921826 -0.0008865922663603499
19 -0.0010711864429459106 -0.0004147272714880899 0.00040716177343003216
22 -0.001553892448857574 0.0007379376155309331 -0.0001523706598330294
21 -0.0009871307026383196 0.0006361663855208989 0.0011481276162824772
20 0.0024043733239105633 0.0009435446809528684 -0.0012387706824417933
40 0.002180228778528323 -0.0012171047728721637 -0.0009589394743932195
38 0.0011066618878812842 0.001280599330282016 0.0004383804685398883
15 0.00037532916037975276 0.0022675659234508427 0.0009592367016001051
14 0.001299648703343383 0.0018410719852502873 -0.0012722718555233988
18 -0.0008211268603541881 -0.003077207186190003 0.0009679927800330733
17 0.0005520681306030534 -0.0019933962412221826 -0.0019170737322772846
11 -0.0003596466773460161 0.0005981217905813918 0.00019313478451250812
7 -0.0015267446254885687 -0.0025583230987301017 0.000991268345380163
8 -0.0009741357679120458 0.0017185315278266146 0.0005739938719698621
9 0.0023164309827376573 -0.0007902095599888936 -0.0019222353383409481
37 0.00205657565444457 -0.001481926073007886 0.0026376295634813244
36 -0.0009432716728234409 -0.0005432422142502809 -0.005545988146169527
10 -0.002889551679744676 0.003249748606958316 0.00022336503467876528
12 -0.001173858149365058 0.00409812164719466 0.0014202659465319977
45 0.00012064574501606596 0.0008420881499237738 0.0009312396395120803
48 -0.0035540267015731907 0.004157309753168559 0.0009503721305905478
47 -0.0008395979589516943 0.00044373956760060835 0.001675532312308411
49 0.00038574298833492227 -0.0007560293115196768 -0.0015411246790342473
46 -0.00170968361110143 -0.0019823230301407035 -0.0026923875267031976
24 0.0004468216182315505 0.00025378645324955804 0.0004891766198438169
25 -0.0006396134168718752 -0.0011259711723842186 0.0018356777217261215
23 -0.001207911026266015 0.0010493313473330494 0.00017449312478763607
26 0.0005280245844301314 0.001466371175789126 0.0016801975598015112
44 -0.0005488663573331088 -0.00162588056326113 0.00010192096357331651
39 -0.002421462099728976 -0.0010115653729749659 0.000573896551460815
42 0.003535415088450499 0.00027037572777591695 0.0009977347900297963
43 0.0017184776452808354 -0.0008968540098968535 -0.001219031722808165
41 -0.0007435004059914535 0.0013574186670342627 -9.434611049750779e-05
35 0.004534010254972071 -0.004293771415476484 -0.0006300861645562861
31 -0.001842610468204077 -0.0008297046838960507 0.0037992566460074146
32 -0.00345155378908428 0.001873059100210513 0.0003470442788769816
33 -0.00202992101610345 0.0023546842120188054 0.0004382362490363277
28 0.003358412332701731 -0.0015200383276683864 0.0011984659793427166
30 0.0018114483304959108 0.0009878457777260305 -0.0019271708326729215
4 -0.0006761820167181832 -0.00012055513494869355 -0.0003863815729498622
6 4.064401156637275e-05 -0.002188661876110007 0.0006610747042525932
3 0.0014825547815273436 -0.0010009130074853211 -0.00048052897358068377
2 4.706240102280522e-05 -0.0004765955963465372 -0.003650039351764631
1 -0.0003117804784765614 0.0009755930848911252 0.003433947713037335
34 -0.00035018211800352 0.000953158565859989 -0.0005069257091541551
5 -0.0007837571738680771 0.00045874982026219855 0.0019492558609627822
27 0.00040098482616984375 -0.0028673253637572184 -0.003443607325026465
29 0.0017670964880149623 0.0007391627394421475 0.0009674322639252483

Bonds

1 1 13 14
2 1 16 17
3 1 19 20
4 1 22 23
5 1 21 22
6 1 20 21
7 1 40 41
8 1 38 39
9 1 15 16
10 1 14 15
11 1 18 19
12 1 17 18
13 1 11 12
14 1 7 8
15 1 8 9
16 1 9 10
17 1 37 38
18 1 36 37
19 1 10 11
20 1 12 13
21 1 45 46
22 1 48 49
23 1 47 48
24 1 49 50
25 1 46 47
26 1 24 25
27 1 25 26
28 1 23 24
29 1 26 27
30 1 44 45
31 1 39 40
32 1 42 43
33 1 43 44
34 1 41 42
35 1 35 36
36 1 31 32
37 1 32 33
38 1 33 34
39 1 28 29
40 1 30 31
41 1 4 5
42 1 6 7
43 1 3 4
44 1 2 3
45 1 1 2
46 1 34 35
47 1 5 6
48 1 27 28
49 1 29 30

Angles

1 1 12 13 14
2 1 15 16 17
3 1 18 19 20
4 1 21 22 23
5 1 20 21 22
6 1 19 20 21
7 1 39 40 41
8 1 37 38 39
9 1 14 15 16
10 1 13 14 15
11 1 17 18 19
12 1 16 17 18
13 1 10 11 12
14 1 6 7 8
15 1 7 8 9
16 1 8 9 10
17 1 36 37 38
18 1 35 36 37
19 1 9 10 11
20 1 11 12 13
21 1 44 45 46
22 1 47 48 49
23 1 46 47 48
24 1 48 49 50
25 1 45 46 47
26 1 23 24 25
27 1 24 25 26
28 1 22 23 24
29 1 25 26 27
30 1 43 44 45
31 1 38 39 40
32 1 41 42 43
33 1 42 43 44
34 1 40 41 42
35 1 34 35 36
36 1 30 31 32
37 1 31 32 33
38 1 32 33 34
39 1 27 28 29
40 1 29 30 31
41 1 3 4 5
42 1 5 6 7
43 1 2 3 4
44 1 1 2 3
45 1 33 34 35
46 1 4 5 6
47 1 26 27 28
48 1 28 29 30

Dihedrals

1 1 12 13 14 15
2 1 15 16 17 18
3 1 18 19 20 21
4 1 21 22 23 24
5 1 20 21 22 23
6 1 19 20 21 22
7 1 39 40 41 42
8 1 37 38 39 40
9 1 14 15 16 17
10 1 13 14 15 16
11 1 17 18 19 20
12 1 16 17 18 19
13 1 10 11 12 13
14 1 6 7 8 9
15 1 7 8 9 10
16 1 8 9 10 11
17 1 36 37 38 39
18 1 35 36 37 38
19 1 9 10 11 12
20 1 11 12 13 14
21 1 44 45 46 47
22 1 47 48 49 50
23 1 46 47 48 49
24 1 45 46 47 48
25 1 23 24 25 26
26 1 24 25 26 27
27 1 22 23 24 25
28 1 25 26 27 28
29 1 43 44 45 46
30 1 38 39 40 41
31 1 41 42 43 44
32 1 42 43 44 45
33 1 40 41 42 43
34 1 34 35 36 37
35 1 30 31 32 33
36 1 31 32 33 34
37 1 32 33 34 35
38 1 27 28 29 30
39 1 29 30 31 32
40 1 3 4 5 6
41 1 5 6 7 8
42 1 2 3 4 5
43 1 1 2 3 4
44 1 33 34 35 36
45 1 4 5 6 7
46 1 26 27 28 29
47 1 28 29 30 31
