ITEM: TIMESTEP
2000000
ITEM: NUMBER OF ATOMS
100
ITEM: BOX BOUNDS pp pp pp
-7.7370699999999999e+01 7.7370699999999999e+01
-7.7370699999999999e+01 7.7370699999999999e+01
-7.7370699999999999e+01 7.7370699999999999e+01
ITEM: ATOMS id type x y z
1 1 12.1928 -5.58988 -3.6856
2 2 10.2173 -1.72933 -3.33749
3 2 10.4719 -3.15553 -7.79325
4 2 13.5651 0.233724 -7.96751
5 2 17.7518 -0.589566 -6.39104
6 2 13.6747 -2.29264 -6.97924
7 2 14.0567 -4.18652 -11.0553
8 2 9.97054 -3.98847 -12.2592
9 2 6.37528 -1.6904 -10.412
10 2 9.22249 -5.2641 -10.2276
11 2 12.2827 -1.92903 -10.257
12 2 14.7862 -4.60885 -7.88478
13 2 16.3476 -6.15327 -3.99681
14 2 18.3063 -7.69721 -0.52328
15 2 21.6981 -10.4857 0.342836
16 2 23.7827 -13.7509 -1.83076
17 2 23.6228 -18.0522 -3.22323
18 2 21.6164 -17.3637 -7.25146
19 2 24.3942 -20.1549 -5.02897
20 2 23.3568 -23.745 -2.83027
21 2 20.4502 -20.7111 -4.60789
22 2 19.9406 -17.1805 -7.29068
23 2 18.909 -21.0557 -5.29423
24 2 22.7037 -23.2509 -4.28963
25 2 21.3522 -19.8589 -1.94879
26 2 25.3964 -20.8373 -3.51806
27 2 22.041 -21.8139 -1.14206
28 2 21.1122 -17.4565 -1.24499
29 2 19.4748 -17.3589 -5.37904
30 2 23.4041 -15.4288 -5.34344
31 2 21.6703 -12.2913 -2.4729
32 2 17.2032 -12.6094 -2.49522
33 2 14.7951 -14.5816 -5.63971
34 2 12.2 -11.8183 -8.27348
35 2 13.6351 -13.9154 -4.44923
36 2 13.9484 -14.0886 -0.0318655
37 2 10.3997 -14.108 2.73223
38 2 6.5688 -11.5108 2.85012
39 2 5.26843 -15.1571 5.1006
40 2 3.41087 -17.6574 8.11873
41 2 0.56004 -15.6926 5.09303
42 2 2.79968 -18.0026 8.26264
43 2 5.41111 -21.7181 8.89204
44 2 7.45135 -18.0655 7.6493
45 2 7.2985 -21.4742 10.3849
46 2 4.72548 -24.0383 7.74506
47 2 7.98327 -21.0728 8.66069
48 2 6.76396 -20.5096 4.36692
49 2 4.50446 -17.137 6.15599
50 2 7.47506 -16.7217 9.66413
51 2 6.876 -14.4253 5.97445
52 2 6.79326 -18.1211 8.74251
53 2 11.3228 -18.0626 7.96552
54 2 8.76288 -15.8111 5.28561
55 2 7.99256 -11.9405 2.94561
56 2 8.55061 -10.4092 7.23197
57 2 7.03632 -8.00975 10.6225
58 2 7.45392 -5.54098 6.85016
59 2 9.93953 -9.27178 6.15422
60 2 12.5202 -10.5197 2.72479
61 2 16.0189 -9.67558 0.261928
62 2 13.9108 -11.1744 -3.38464
63 2 11.0542 -13.8647 -1.21046
64 2 10.9038 -16.0115 2.66115
65 2 7.70498 -14.0283 5.06475
66 2 5.11987 -16.9759 3.38717
67 2 8.15412 -14.3327 5.39882
68 2 7.45832 -10.8517 8.11138
69 2 11.289 -11.7529 5.97
70 2 11.2489 -14.2702 9.76665
71 2 7.89405 -17.1596 9.68761
72 2 4.6832 -14.0991 11.1399
73 2 1.51709 -14.496 13.9945
74 2 2.88932 -14.9767 9.75815
75 2 0.952172 -15.4859 5.68389
76 2 1.43477 -15.1905 1.07107
77 2 1.21144 -15.598 -3.33502
78 2 4.24975 -12.3689 -2.72501
79 2 7.67676 -9.81779 -1.74058
80 2 7.80161 -10.3962 -6.19043
81 2 10.9469 -11.6432 -3.22301
82 2 10.1396 -14.4051 -7.01926
83 2 14.1726 -14.3222 -9.60843
84 2 11.5978 -13.5778 -5.95688
85 2 15.1373 -15.9421 -7.20752
86 2 18.2106 -16.5874 -10.3484
87 2 16.4699 -16.8142 -6.31055
88 2 13.3903 -13.7252 -7.4163
89 2 12.8949 -16.2183 -3.72425
90 2 9.4531 -14.4052 -1.89531
91 2 13.2656 -12.0569 -3.12392
92 2 10.6007 -15.502 -2.18569
93 2 6.80947 -15.7179 -4.47123
94 2 2.47423 -15.5209 -4.0287
95 2 -0.961225 -14.3448 -1.65237
96 2 -0.436193 -11.5787 1.8987
97 2 -3.72979 -14.3385 3.30153
98 2 -6.49672 -13.7329 6.60558
99 2 -6.35797 -14.9569 2.29302
100 1 -7.89244 -12.7215 -1.23367
ITEM: TIMESTEP
4000000
ITEM: NUMBER OF ATOMS
100
ITEM: BOX BOUNDS pp pp pp
-7.7370699999999999e+01 7.7370699999999999e+01
-7.7370699999999999e+01 7.7370699999999999e+01
-7.7370699999999999e+01 7.7370699999999999e+01
ITEM: ATOMS id type x y z
1 1 1.42596 -24.0981 0.453921
2 2 1.41909 -24.7898 -3.97156
3 2 4.16619 -26.5319 -7.11734
4 2 1.45755 -29.1842 -4.55603
5 2 4.2732 -28.5899 -1.11241
6 2 2.01729 -24.5752 -1.13022
7 2 1.1864 -20.5403 -2.52906
8 2 0.596113 -20.2069 -6.88825
9 2 3.62523 -22.6822 -4.7346
10 2 3.52417 -18.337 -4.4805
11 2 7.60848 -18.7591 -6.39442
12 2 5.52607 -14.7635 -6.10599
13 2 5.60312 -18.5526 -8.96334
14 2 3.18613 -16.2746 -12.2244
15 2 6.32238 -13.053 -12.1888
16 2 9.13515 -13.0872 -8.55093
17 2 10.7918 -9.74271 -6.05545
18 2 10.2399 -6.43257 -8.92372
19 2 11.3126 -8.59162 -5.02605
20 2 10.474 -11.8592 -7.93213
21 2 8.62763 -15.5717 -9.81466
22 2 8.99687 -18.9397 -12.4967
23 2 7.53269 -21.8859 -9.41895
24 2 7.58156 -20.5044 -5.06048
25 2 9.88027 -16.8055 -4.11843
26 2 6.39423 -14.1855 -3.11676
27 2 2.81211 -11.4919 -2.88572
28 2 7.10855 -13.1331 -2.53224
29 2 3.43079 -15.5216 -1.61631
30 2 7.48809 -17.4941 -1.7735
31 2 6.93417 -21.7388 -2.84376
32 2 4.10733 -19.2054 -5.23014
33 2 3.03165 -14.7436 -5.51753
34 2 7.40244 -14.8343 -4.90395
35 2 11.4639 -15.4964 -3.30908
36 2 13.3468 -11.7579 -1.62784
37 2 14.2724 -15.0948 -4.34371
38 2 12.7104 -16.471 -0.290616
39 2 15.0191 -18.0227 3.14576
40 2 14.7977 -13.9689 1.2529
41 2 16.2882 -12.045 5.02498
42 2 20.4939 -12.8467 3.23914
43 2 18.9432 -16.076 6.00836
44 2 16.9079 -14.4723 2.19061
45 2 14.7794 -17.8242 0.0783688
46 2 11.8089 -15.9124 -2.79581
47 2 10.7497 -17.4626 1.32954
48 2 13.6863 -14.3207 -0.157358
49 2 10.9592 -17.5054 1.51558
50 2 10.6972 -14.9765 5.22311
51 2 13.3854 -12.5049 2.69936
52 2 12.2332 -7.98235 3.59936
53 2 13.37 -8.48446 -0.84664
54 2 17.3191 -10.2828 -2.10935
55 2 15.8954 -6.78657 -4.9074
56 2 14.6216 -10.2612 -2.35243
57 2 18.1902 -12.5773 -3.25593
58 2 21.7877 -11.1129 -5.62575
59 2 20.5001 -15.0224 -7.43034
60 2 17.9804 -11.5374 -5.70861
61 2 17.4803 -12.0289 -1.17729
62 2 15.2466 -8.35845 -2.35244
63 2 16.5326 -5.48502 -5.106
64 2 15.4902 -4.26973 -0.971792
65 2 16.9942 -4.29637 3.13969
66 2 19.0229 -4.59148 7.04864
67 2 15.8603 -7.53307 5.93285
68 2 18.2879 -9.24267 2.6012
69 2 22.5175 -8.40512 4.00144
70 2 21.833 -4.98228 6.88253
71 2 24.3974 -3.56465 10.3314
72 2 22.8877 0.219819 8.69736
73 2 25.5609 -3.22044 9.11534
74 2 25.173 -7.35157 7.49057
75 2 21.6057 -4.57041 8.40219
76 2 19.5329 -0.802116 8.89763
77 2 21.7798 -1.45446 5.01984
78 2 22.3311 -4.60973 8.386
79 2 18.3824 -6.85092 8.54806
80 2 18.125 -3.91997 5.27052
81 2 15.2726 -5.86132 2.48477
82 2 15.4657 -8.60585 5.97086
83 2 18.4287 -5.15562 5.31172
84 2 18.987 -8.98871 7.59561
85 2 18.7126 -11.372 3.89242
86 2 18.1768 -15.4313 5.70174
87 2 15.1504 -17.6492 8.23131
88 2 12.9482 -14.0979 6.55575
89 2 8.50421 -14.1772 7.74025
90 2 5.35802 -16.7436 9.86302
91 2 5.72845 -15.7726 5.6215
92 2 2.80953 -19.061 4.49546
93 2 -0.93839 -19.8198 1.91732
94 2 -4.95753 -21.6895 2.57571
95 2 -8.27386 -19.0065 0.585778
96 2 -12.4272 -17.7717 -0.909717
97 2 -11.5765 -13.429 -2.07404
98 2 -11.3958 -17.6276 -0.865971
99 2 -9.03831 -16.6671 2.9196
100 1 -6.74289 -20.31 3.66898
ITEM: TIMESTEP
6000000
ITEM: NUMBER OF ATOMS
100
ITEM: BOX BOUNDS pp pp pp
-7.7370699999999999e+01 7.7370699999999999e+01
-7.7370699999999999e+01 7.7370699999999999e+01
-7.7370699999999999e+01 7.7370699999999999e+01
ITEM: ATOMS id type x y z
1 1 1.19532 -5.41081 15.7352
2 2 3.13948 -1.25611 16.2669
3 2 5.03837 -3.80827 13.2624
4 2 0.967388 -5.57724 13.8136
5 2 -3.38191 -4.59383 14.0773
6 2 -1.54597 -4.80547 9.9451
7 2 2.49886 -3.34717 8.45914
8 2 -0.777725 -6.11139 7.58521
9 2 1.31106 -5.6732 3.59811
10 2 5.62499 -7.22831 3.03469
11 2 9.14248 -6.97484 0.576331
12 2 11.4214 -6.22012 -3.13386
13 2 14.8147 -7.92216 -5.39817
14 2 13.4943 -8.60584 -9.5662
15 2 10.4475 -5.58682 -10.7511
16 2 14.1481 -8.01131 -9.83487
17 2 14.45 -6.26599 -5.86213
18 2 11.1321 -8.43775 -8.12712
19 2 11.2984 -9.79943 -12.3354
20 2 14.7173 -12.6191 -11.7241
21 2 17.9507 -15.0761 -9.57145
22 2 18.4387 -11.4246 -6.86513
23 2 16.4523 -14.0422 -3.85817
24 2 14.0712 -11.7995 -0.706759
25 2 17.568 -8.91252 0.158077
26 2 17.2633 -9.22213 4.61002
27 2 16.5923 -13.2985 6.46797
28 2 16.5139 -13.8931 10.8819
29 2 13.1872 -15.8353 8.53052
30 2 13.0639 -14.4734 4.20224
31 2 15.6472 -14.1868 0.343258
32 2 13.9833 -14.0611 4.53699
33 2 15.5473 -11.8041 1.03188
34 2 15.5682 -12.3374 -3.32672
35 2 18.2099 -13.6301 -6.79109
36 2 16.3538 -17.4359 -6.05355
37 2 13.6893 -18.5408 -2.52637
38 2 14.169 -17.1569 -6.71088
39 2 10.9639 -16.4203 -3.74585
40 2 7.35901 -15.9095 -1.17806
41 2 7.27125 -11.4639 -0.0133355
42 2 8.96986 -14.62 -2.67732
43 2 5.95263 -14.4921 0.763491
44 2 7.20197 -18.343 -0.87509
45 2 3.44903 -17.6858 -3.37529
46 2 6.85269 -20.3637 -3.17436
47 2 10.5484 -18.3613 -4.38765
48 2 14.8544 -17.6239 -4.40893
49 2 18.7738 -16.6249 -2.36027
50 2 22.2978 -16.573 -5.18561
51 2 19.1984 -16.1114 -8.36759
52 2 19.8866 -20.4168 -7.77893
53 2 19.5794 -21.7242 -3.42384
54 2 17.5759 -22.5634 0.46811
55 2 19.0458 -24.3664 -3.52986
56 2 14.6963 -25.3925 -4.00776
57 2 17.4813 -28.9818 -4.68767
58 2 17.186 -24.6564 -5.36919
59 2 17.8785 -20.9283 -3.12984
60 2 20.1199 -17.576 -4.70217
61 2 17.5938 -18.2246 -8.1396
62 2 18.6478 -17.7329 -3.7426
63 2 20.1346 -20.6274 -0.798884
64 2 17.2656 -17.7381 1.49447
65 2 20.609 -18.6951 -1.23348
66 2 17.162 -21.3799 -2.02465
67 2 17.0407 -25.3911 0.187009
68 2 13.8669 -22.9598 -2.08323
69 2 10.8814 -22.0574 0.919068
70 2 7.94671 -18.5713 1.60334
71 2 11.3945 -16.0703 2.59924
72 2 14.1124 -14.7133 5.84994
73 2 12.0233 -12.0639 3.13821
74 2 9.24531 -10.1307 6.23912
75 2 7.13908 -10.8487 9.99572
76 2 11.41 -12.2759 10.1158
77 2 15.1827 -9.98971 10.1086
78 2 12.5794 -7.00988 8.11605
79 2 9.59835 -3.6484 8.06085
80 2 5.67392 -5.11642 6.46415
81 2 6.45811 -5.31708 10.7476
82 2 7.82766 -9.2177 8.29302
83 2 3.72464 -10.2068 6.28796
84 2 1.55238 -10.931 2.41517
85 2 -2.19011 -8.71157 0.92709
86 2 -1.70895 -13.1182 1.71758
87 2 -1.52298 -17.3917 0.52863
88 2 0.163512 -13.8232 2.68944
89 2 2.19148 -14.9002 -1.00449
90 2 2.62303 -17.7685 -4.44463
91 2 0.113737 -14.1735 -5.67044
92 2 3.81748 -12.217 -7.22438
93 2 6.21512 -8.42268 -8.28052
94 2 5.39811 -11.1938 -5.14282
95 2 8.98214 -13.7943 -4.34656
96 2 10.6419 -15.6578 -0.686669
97 2 7.78677 -18.6723 -2.34834
98 2 7.60842 -14.334 -3.27697
99 2 5.42376 -16.0699 -6.75897
100 1 1.4981 -14.3179 -7.89124
ITEM: TIMESTEP
8000000
ITEM: NUMBER OF ATOMS
100
ITEM: BOX BOUNDS pp pp pp
-7.7370699999999999e+01 7.7370699999999999e+01
-7.7370699999999999e+01 7.7370699999999999e+01
-7.7370699999999999e+01 7.7370699999999999e+01
ITEM: ATOMS id type x y z
1 1 24.6644 -31.2855 0.998903
2 2 23.5245 -26.8646 0.602894
3 2 21.5942 -30.4431 -1.42828
4 2 22.6986 -26.353 -0.347912
5 2 22.2787 -22.0323 -0.348366
6 2 17.7605 -21.4536 -0.97931
7 2 17.4907 -23.1537 -5.04721
8 2 13.4317 -21.7983 -3.58022
9 2 9.06583 -22.9681 -4.26321
10 2 5.89566 -21.5329 -6.98514
11 2 2.43953 -19.1592 -5.25063
12 2 4.04728 -15.2389 -6.84276
13 2 4.87589 -13.2638 -10.7789
14 2 2.67239 -15.7886 -7.90589
15 2 0.224935 -19.3336 -9.25098
16 2 -1.95345 -16.7796 -12.2498
17 2 -5.02217 -18.2013 -9.3445
18 2 -4.3484 -18.6217 -4.99893
19 2 -1.95166 -17.7639 -8.63967
20 2 2.12502 -16.1904 -7.77433
21 2 0.849891 -18.2621 -11.5392
22 2 3.27947 -20.5171 -8.3097
23 2 -0.974686 -21.1608 -7.73443
24 2 -1.79656 -20.0318 -3.57228
25 2 -1.81456 -16.2476 -6.03521
26 2 1.74224 -15.899 -3.54839
27 2 -1.96411 -14.4388 -1.80174
28 2 -4.19751 -10.8609 -0.133957
29 2 -2.29827 -12.6146 -3.85457
30 2 0.421001 -12.4802 -0.302743
31 2 3.75618 -12.902 2.93982
32 2 2.96635 -10.9127 -0.952572
33 2 5.00319 -14.0264 -3.63712
34 2 5.28321 -9.44445 -2.96954
35 2 1.71295 -7.69029 -0.964269
36 2 -1.81573 -6.79256 -3.44788
37 2 1.54989 -9.12286 -5.27689
38 2 2.22413 -10.2001 -0.851261
39 2 3.71176 -6.20964 -2.59042
40 2 6.34036 -3.15599 -0.877603
41 2 7.70795 -3.41564 -5.26282
42 2 5.20179 -6.34658 -3.46318
43 2 5.17134 -10.5401 -1.63998
44 2 7.87219 -13.3552 0.482848
45 2 11.5518 -11.0486 -0.504556
46 2 14.6445 -11.1447 -3.88675
47 2 18.4186 -12.9991 -2.49111
48 2 18.7808 -13.6225 1.92502
49 2 20.5124 -16.4654 -1.07263
50 2 24.2093 -16.8836 1.22231
51 2 27.3577 -17.9081 -1.52667
52 2 28.0039 -22.1986 -0.456332
53 2 23.7963 -20.6908 0.158448
54 2 20.4347 -19.8353 -2.50639
55 2 16.3322 -21.5122 -3.58757
56 2 16.1609 -22.0544 1.0131
57 2 19.2781 -18.8214 1.80802
58 2 21.4997 -15.1977 3.13831
59 2 19.8537 -11.2059 1.83229
60 2 18.7604 -10.2158 -2.30035
61 2 16.27 -13.6531 -4.07219
62 2 15.3591 -12.3323 -8.24172
63 2 13.0477 -8.43728 -7.4069
64 2 11.2834 -12.3004 -6.11263
65 2 9.84675 -16.6637 -6.73971
66 2 5.98707 -15.0717 -5.47731
67 2 4.10136 -17.634 -8.7178
68 2 6.33198 -21.2451 -7.0954
69 2 7.5939 -25.1218 -4.93571
70 2 8.46096 -26.9239 -0.972615
71 2 8.29677 -24.7409 2.83941
72 2 12.8078 -25.708 2.30051
73 2 17.004 -25.6998 0.904469
74 2 20.881 -25.0816 3.04471
75 2 21.1199 -28.8461 5.73459
76 2 19.0078 -24.9196 5.74018
77 2 19.0848 -21.3882 2.85579
78 2 19.1506 -18.7691 6.5041
79 2 14.7953 -18.5075 8.08228
80 2 11.8178 -16.1123 10.5329
81 2 8.15545 -13.7276 11.5489
82 2 10.8914 -10.3507 10.4132
83 2 8.02731 -6.76481 10.5417
84 2 8.72211 -2.45156 11.874
85 2 8.52271 -6.52631 10.0499
86 2 4.61595 -4.23593 10.487
87 2 9.14538 -3.1928 10.0477
88 2 11.6514 -0.763307 12.822
89 2 8.34207 -1.17563 9.73661
90 2 7.82502 3.29552 9.03393
91 2 12.0782 2.54282 8.14209
92 2 11.7931 5.69412 11.5677
93 2 14.2948 3.45068 8.59684
94 2 17.1143 6.61389 7.4264
95 2 19.3897 8.89918 3.90589
96 2 23.4941 8.60608 5.81004
97 2 22.3241 4.2539 5.94243
98 2 18.8615 7.0452 6.83814
99 2 18.2114 3.09607 8.88644
100 1 19.9105 -0.563759 6.78101
ITEM: TIMESTEP
10000000
ITEM: NUMBER OF ATOMS
100
ITEM: BOX BOUNDS pp pp pp
-7.7370699999999999e+01 7.7370699999999999e+01
-7.7370699999999999e+01 7.7370699999999999e+01
-7.7370699999999999e+01 7.7370699999999999e+01
ITEM: ATOMS id type x y z
1 1 -0.721905 -11.408 -17.3294
2 2 3.121 -12.1362 -14.9195
3 2 3.16247 -7.94279 -16.382
4 2 4.76301 -6.13677 -12.558
5 2 4.34778 -3.33317 -15.9315
6 2 6.18119 -1.58433 -19.6577
7 2 4.72424 2.0152 -21.554
8 2 3.6672 0.19815 -17.4583
9 2 1.13405 0.371733 -13.7142
10 2 4.82318 -1.37415 -15.1006
11 2 7.04558 -2.74902 -11.4342
12 2 4.65694 -0.0546977 -14.3089
13 2 3.89144 3.65561 -12.1231
14 2 5.12034 6.52511 -9.05743
15 2 1.83515 3.70098 -8.30773
16 2 5.84867 5.35697 -9.97435
17 2 4.38822 1.79314 -7.58341
18 2 3.74549 -0.0681295 -3.42144
19 2 2.45478 -3.47177 -1.03149
20 2 1.90712 0.200048 1.36843
21 2 4.37412 2.02994 -2.00589
22 2 5.52855 -1.04225 1.21724
23 2 5.87781 3.41723 1.28071
24 2 2.62681 0.581488 0.662978
25 2 3.27078 4.37648 3.03965
26 2 1.69507 1.00362 0.618936
27 2 3.08678 5.07996 0.324868
28 2 -0.970069 4.79213 2.23901
29 2 -2.16821 1.6535 -0.705177
30 2 -1.07642 -2.69868 -1.31783
31 2 2.85171 -4.95364 -1.58988
32 2 2.60597 -1.25242 -4.14304
33 2 2.53625 0.661984 -8.29524
34 2 6.11718 -1.41014 -6.06676
35 2 6.7097 -1.77999 -1.54276
36 2 11.3016 -1.50981 -1.61245
37 2 12.3782 2.90409 -2.2678
38 2 8.41359 1.1529 -1.47167
39 2 7.61954 -3.20026 -1.24889
40 2 11.599 -1.21381 -1.03982
41 2 14.0113 -1.57993 2.61704
42 2 16.7391 -4.92514 3.33446
43 2 18.7848 -4.72673 7.42718
44 2 19.6831 -8.94858 7.82252
45 2 15.3768 -10.3428 7.61379
46 2 14.8696 -10.3828 3.19506
47 2 13.9151 -14.8106 2.85421
48 2 12.8205 -19.0574 2.57679
49 2 8.61821 -19.7407 1.21721
50 2 11.8985 -20.2776 -1.88894
51 2 16.2166 -19.1695 -3.19501
52 2 14.1399 -17.1834 0.411218
53 2 11.5315 -20.9602 0.605646
54 2 12.7446 -16.5101 1.49448
55 2 14.5196 -12.3931 0.951251
56 2 16.0615 -11.726 5.00847
57 2 16.6615 -12.2104 9.43502
58 2 14.8296 -16.1337 8.72553
59 2 14.8646 -13.4919 12.4633
60 2 10.55 -14.2434 13.1834
61 2 13.4727 -12.8132 10.0467
62 2 11.3998 -15.3831 13.1886
63 2 10.9513 -17.0818 8.96852
64 2 14.5267 -18.9106 6.9996
65 2 14.439 -14.4529 6.62613
66 2 15.0831 -18.7186 5.32088
67 2 16.434 -23.0663 5.4644
68 2 14.2317 -23.2108 9.25207
69 2 14.5513 -27.2556 7.37222
70 2 15.2671 -31.0001 9.77494
71 2 13.9251 -35.1763 10.8541
72 2 11.5251 -31.465 11.2356
73 2 12.0971 -28.7184 7.89918
74 2 16.4194 -29.8325 8.09606
75 2 14.901 -25.6677 7.33644
76 2 12.4441 -29.1766 8.33143
77 2 16.3823 -27.7292 6.94897
78 2 17.6735 -28.3146 2.682
79 2 21.9776 -29.0189 3.953
80 2 17.5511 -30.2014 4.31259
81 2 18.4203 -34.1488 2.28091
82 2 14.5031 -33.4761 3.96196
83 2 11.9239 -36.1704 1.61319
84 2 10.9193 -37.144 5.78463
85 2 10.0814 -39.6722 2.30072
86 2 12.7338 -36.3207 0.425226
87 2 14.2981 -38.8705 3.85955
88 2 14.3412 -38.9553 -0.684329
89 2 10.4969 -37.3636 -1.36153
90 2 9.87394 -33.1292 -2.15097
91 2 12.978 -30.3642 -3.81035
92 2 12.2958 -27.9652 -0.0792903
93 2 15.4866 -26.9535 -3.09355
94 2 18.4022 -23.7356 -2.01509
95 2 19.1799 -19.3463 -1.50992
96 2 22.5093 -16.7863 0.451361
97 2 20.292 -20.6665 0.822722
98 2 20.7905 -17.2357 -1.92325
99 2 24.0547 -14.9107 0.0725525
100 1 28.516 -14.9979 1.16962
ITEM: TIMESTEP
12000000
ITEM: NUMBER OF ATOMS
100
ITEM: BOX BOUNDS pp pp pp
-7.7370699999999999e+01 7.7370699999999999e+01
-7.7370699999999999e+01 7.7370699999999999e+01
-7.7370699999999999e+01 7.7370699999999999e+01
ITEM: ATOMS id type x y z
1 1 9.86772 -6.46389 18.7341
2 2 6.60821 -5.48448 21.6876
3 2 9.49337 -2.40755 23.042
4 2 9.66609 -4.91346 19.5514
5 2 10.5994 -0.523221 19.9748
6 2 11.0661 -4.51518 17.921
7 2 11.4294 -1.56049 14.6455
8 2 7.56799 -0.0715151 12.6759
9 2 7.90512 -4.00419 10.6252
10 2 8.39158 -1.90518 6.5284
11 2 6.47869 -5.89355 7.20067
12 2 8.35495 -2.14595 8.46203
13 2 4.74299 -4.57927 9.64548
14 2 3.87119 -7.35682 12.8173
15 2 3.32001 -7.44618 8.53754
16 2 2.43214 -6.08429 4.53451
17 2 6.91171 -5.48611 3.72836
18 2 9.5274 -8.72782 1.89742
19 2 10.0924 -11.9619 4.95593
20 2 11.7096 -15.9666 6.51336
21 2 15.8473 -15.1185 5.12628
22 2 11.9771 -13.8206 7.01844
23 2 7.77183 -14.9055 6.34328
24 2 7.58856 -18.446 3.59456
25 2 5.84818 -14.6472 1.88809
26 2 9.03585 -17.0772 4.1327
27 2 6.87348 -18.2503 7.88785
28 2 9.01765 -14.5143 9.31846
29 2 5.03557 -13.4453 11.1145
30 2 8.89515 -15.5257 11.0672
31 2 11.2669 -17.6462 7.92204
32 2 15.4375 -18.4741 9.52454
33 2 11.1079 -17.6723 8.83093
34 2 12.4528 -16.3781 4.7428
35 2 10.207 -12.6826 4.96203
36 2 10.5068 -14.9503 1.09302
37 2 14.4514 -13.6639 3.0637
38 2 16.3031 -15.7372 -0.411249
39 2 19.0042 -12.2909 -1.89422
40 2 16.559 -15.0561 -4.46148
41 2 17.1999 -16.1124 -0.147907
42 2 18.3146 -13.865 -3.9462
43 2 18.0368 -17.0921 -0.871129
44 2 15.819 -15.2479 2.60851
45 2 19.1949 -13.0557 0.425846
46 2 19.0704 -11.9144 -3.89995
47 2 15.1186 -10.2042 -2.76007
48 2 13.2128 -9.54906 1.13788
49 2 11.2854 -7.00473 -1.87628
50 2 14.1741 -6.99477 1.49098
51 2 15.0562 -10.8504 3.75969
52 2 12.9045 -13.8324 1.17769
53 2 12.4574 -16.1556 -2.70977
54 2 10.6965 -12.5874 -0.482741
55 2 13.9604 -15.123 0.893778
56 2 15.7196 -19.3205 0.0676005
57 2 11.6599 -17.646 0.244632
58 2 14.1263 -15.0325 -2.41496
59 2 16.0555 -12.5933 0.535577
60 2 16.9131 -13.427 -3.95541
61 2 15.8176 -17.2149 -5.9848
62 2 17.0797 -13.4056 -4.48707
63 2 15.1925 -16.3224 -1.79593
64 2 10.9361 -14.4767 -1.04789
65 2 13.4567 -15.1632 2.66496
66 2 11.4821 -11.6268 4.51229
67 2 14.8379 -11.1678 1.26306
68 2 10.3103 -11.5436 0.91107
69 2 13.3801 -11.5455 -2.14008
70 2 9.54645 -9.48573 -2.37399
71 2 9.78791 -13.7704 -0.991726
72 2 6.44806 -13.6944 -3.69757
73 2 4.81529 -17.8248 -3.4897
74 2 2.06531 -21.2013 -2.93107
75 2 -0.672114 -18.0324 -1.00842
76 2 3.03325 -16.1959 -2.42626
77 2 2.42309 -12.3902 -0.245972
78 2 0.793599 -16.5401 0.874743
79 2 -1.89285 -16.0264 -2.65675
80 2 -0.930441 -15.8816 -7.11567
81 2 3.40898 -15.4021 -8.61421
82 2 7.33525 -17.0767 -8.90576
83 2 11.9039 -17.0662 -8.97667
84 2 11.5739 -17.5414 -13.5436
85 2 7.80764 -19.9536 -13.6167
86 2 6.34005 -16.3104 -11.2345
87 2 9.81477 -16.3852 -8.58863
88 2 11.9895 -20.137 -8.35016
89 2 14.616 -23.1427 -10.3868
90 2 12.182 -25.0638 -13.5195
91 2 11.3252 -21.7841 -16.4746
92 2 13.5366 -25.4683 -18.0569
93 2 15.8893 -21.9709 -16.653
94 2 16.9476 -18.0831 -18.2053
95 2 17.8463 -19.4115 -22.3836
96 2 13.9382 -20.984 -20.9177
97 2 10.346 -19.0099 -22.7369
98 2 13.4829 -15.9808 -23.7177
99 2 11.0747 -15.0026 -20.3743
100 1 11.1922 -17.3784 -24.1681
ITEM: TIMESTEP
14000000
ITEM: NUMBER OF ATOMS
100
ITEM: BOX BOUNDS pp pp pp
-7.7370699999999999e+01 7.7370699999999999e+01
-7.7370699999999999e+01 7.7370699999999999e+01
-7.7370699999999999e+01 7.7370699999999999e+01
ITEM: ATOMS id type x y z
1 1 9.43791 -0.847653 -13.7821
2 2 5.14925 -0.534882 -14.3168
3 2 9.10793 -0.374268 -11.9002
4 2 12.2062 1.46718 -14.7861
5 2 9.82139 -1.9807 -12.8314
6 2 11.7139 1.95945 -13.1012
7 2 15.5152 -0.417587 -13.4236
8 2 19.8962 -1.17456 -11.9352
9 2 17.9729 -0.227786 -7.90635
10 2 16.3241 3.7067 -6.21043
11 2 17.7408 2.19156 -2.26787
12 2 21.0117 0.568555 0.21643
13 2 19.8189 2.01493 -3.73241
14 2 20.4333 -0.153218 0.182564
15 2 23.5062 -2.98125 1.5371
16 2 21.1815 0.0310148 4.174
17 2 21.8415 -2.65093 7.78972
18 2 24.5601 -4.72839 10.5279
19 2 22.7787 -4.13557 6.40752
20 2 24.2047 -5.30507 10.5551
21 2 21.2736 -6.68271 7.52118
22 2 20.8546 -5.55767 3.28255
23 2 19.365 -1.55121 2.22159
24 2 17.4115 -3.2862 5.80906
25 2 15.2453 -6.95421 4.25632
26 2 17.7939 -6.85739 0.607373
27 2 13.6299 -7.99124 1.99179
28 2 16.4831 -5.53092 3.86554
29 2 19.5477 -8.19789 2.05495
30 2 21.2181 -4.24805 2.87589
31 2 18.923 -0.625072 4.07316
32 2 16.9772 2.76266 2.2329
33 2 14.7649 4.59999 -1.27127
34 2 11.3986 3.39148 -4.12249
35 2 10.2571 -0.0709508 -1.18918
36 2 6.67439 -2.18208 -2.47524
37 2 10.6593 -4.13238 -1.381
38 2 13.0674 -7.6274 -2.98579
39 2 15.583 -9.98818 -0.0796032
40 2 17.1606 -13.5721 2.00211
41 2 14.8555 -9.76871 1.23355
42 2 18.7729 -7.98728 1.14736
43 2 20.2563 -11.9754 2.04356
44 2 18.2051 -14.1012 5.58918
45 2 20.7196 -17.0204 7.97707
46 2 18.3396 -13.792 6.04755
47 2 19.1945 -13.4657 1.35896
48 2 22.8147 -15.9861 0.890304
49 2 23.3022 -15.0632 -3.52626
50 2 20.945 -13.7565 0.011151
51 2 24.9058 -15.8885 0.734332
52 2 23.2225 -18.5538 -2.64818
53 2 20.0938 -15.6503 -3.82044
54 2 16.6685 -18.6849 -4.66675
55 2 14.763 -22.6785 -4.03138
56 2 18.9474 -23.7446 -5.27798
57 2 17.419 -25.0727 -9.07103
58 2 18.4429 -26.1182 -4.63842
59 2 14.8522 -25.7347 -7.11192
60 2 13.4618 -22.0278 -4.99058
61 2 10.8364 -19.3127 -7.43836
62 2 6.6883 -18.075 -6.43021
63 2 10.0115 -21.0053 -5.71215
64 2 9.72094 -24.9096 -7.94465
65 2 7.97798 -29.0059 -7.889
66 2 4.88725 -29.6196 -4.85439
67 2 5.17229 -30.786 -0.532471
68 2 8.9736 -28.5786 0.412138
69 2 5.26629 -30.3496 2.50275
70 2 2.25909 -28.3677 5.41336
71 2 4.72083 -26.3849 2.12177
72 2 9.0458 -24.5834 2.14653
73 2 8.79109 -20.4941 1.00881
74 2 7.35201 -24.806 1.44485
75 2 11.296 -23.252 0.332862
76 2 8.68153 -20.1236 2.42562
77 2 6.55574 -23.9584 3.62146
78 2 8.21917 -19.8708 2.45778
79 2 7.95017 -24.219 3.67403
80 2 4.35938 -22.764 1.56015
81 2 2.19727 -19.2052 -0.596174
82 2 -0.423651 -15.8934 0.706407
83 2 -1.3537 -11.5823 -0.177628
84 2 1.32729 -12.9151 3.21293
85 2 2.46776 -15.2767 6.81447
86 2 -0.925413 -17.989 8.12854
87 2 -3.65631 -21.31 7.70811
88 2 -5.29924 -23.1187 11.319
89 2 -9.4158 -24.3926 11.1923
90 2 -8.08048 -23.4617 6.96041
91 2 -12.2756 -25.1239 5.96175
92 2 -9.26591 -25.6764 2.82709
93 2 -8.81359 -24.8441 -1.61922
94 2 -5.69679 -24.5668 1.53996
95 2 -9.24915 -26.3835 3.35667
96 2 -12.5103 -29.0694 4.22648
97 2 -10.9015 -24.9307 3.48093
98 2 -8.16064 -21.9408 1.47847
99 2 -9.46665 -20.2926 -2.37435
100 1 -5.29486 -18.6882 -1.97437
ITEM: TIMESTEP
16000000
ITEM: NUMBER OF ATOMS
100
ITEM: BOX BOUNDS pp pp pp
-7.7370699999999999e+01 7.7370699999999999e+01
-7.7370699999999999e+01 7.7370699999999999e+01
-7.7370699999999999e+01 7.7370699999999999e+01
ITEM: ATOMS id type x y z
1 1 13.8357 -22.0256 5.18226
2 2 16.434 -24.8855 3.10893
3 2 15.2133 -26.5932 -0.896919
4 2 18.526 -24.9874 1.27322
5 2 22.2862 -25.0702 3.30867
6 2 26.7033 -25.2956 2.0855
7 2 23.7271 -27.3177 -0.67351
8 2 24.5975 -23.8304 2.24156
9 2 25.9037 -21.1984 5.58291
10 2 23.4952 -23.6601 2.44862
11 2 24.9255 -19.8675 3.99951
12 2 24.1285 -24.0687 2.43134
13 2 23.2438 -22.2702 -1.50737
14 2 27.7017 -21.9859 0.00696793
15 2 30.0682 -19.5684 2.77933
16 2 30.651 -16.862 6.23586
17 2 27.4842 -16.8245 3.02379
18 2 25.5317 -20.6579 2.41572
19 2 21.1979 -19.8667 1.32155
20 2 22.5897 -22.6684 -1.822
21 2 18.3312 -23.0769 -2.19909
22 2 20.9876 -19.8557 -4.10788
23 2 20.6363 -15.7403 -5.8102
24 2 21.8521 -11.5302 -4.67296
25 2 24.5337 -11.9411 -8.24294
26 2 22.0956 -12.4215 -4.59881
27 2 25.4131 -11.4782 -7.51695
28 2 23.4865 -15.3546 -6.51449
29 2 20.6686 -18.2118 -8.27889
30 2 23.4344 -15.2788 -6.71324
31 2 23.876 -16.6665 -2.52555
32 2 22.4603 -13.0833 -4.86513
33 2 18.1452 -12.279 -4.53303
34 2 16.3932 -8.30346 -5.29573
35 2 17.4312 -12.4109 -6.88664
36 2 16.9025 -13.0516 -11.2731
37 2 16.8367 -15.59 -7.68282
38 2 14.8716 -14.2171 -3.84684
39 2 12.1281 -10.9022 -3.47949
40 2 9.10051 -14.0322 -4.22636
41 2 8.9631 -9.58448 -3.81103
42 2 10.1776 -13.4165 -2.01063
43 2 10.2439 -15.1015 -6.16847
44 2 8.3577 -14.9573 -2.18003
45 2 5.99273 -16.6195 1.04224
46 2 6.39667 -20.2438 3.45173
47 2 9.92158 -18.6526 1.00126
48 2 8.12161 -14.9703 2.39204
49 2 6.79537 -18.0303 5.15207
50 2 5.14252 -14.0264 5.28281
51 2 6.83178 -10.2057 3.59496
52 2 3.76641 -6.81677 3.08587
53 2 7.19275 -8.1712 5.61625
54 2 9.8451 -7.86154 2.17957
55 2 9.05662 -12.0797 1.32581
56 2 11.8867 -8.77662 0.0839868
57 2 8.40201 -6.4799 1.28758
58 2 6.9184 -8.10289 -2.5176
59 2 3.87062 -9.97378 -5.14122
60 2 7.04206 -9.03893 -2.33731
61 2 9.35908 -6.44785 -5.2329
62 2 8.16127 -10.5175 -6.45859
63 2 6.68435 -6.49888 -5.1042
64 2 6.66582 -8.50122 -9.09688
65 2 11.0527 -8.34288 -9.76113
66 2 9.72401 -4.23362 -7.99326
67 2 8.35658 -7.15171 -4.86012
68 2 6.27564 -5.7052 -8.58449
69 2 10.2321 -4.04188 -10.1236
70 2 6.87528 -5.74357 -7.45606
71 2 7.66519 -9.91259 -5.98554
72 2 5.39159 -6.30644 -4.28073
73 2 2.59064 -9.65916 -3.55839
74 2 1.74786 -13.0516 -0.420415
75 2 -0.682584 -10.1043 2.23801
76 2 -4.03183 -8.27417 -0.0170452
77 2 -0.935642 -11.2551 1.1817
78 2 -0.483264 -15.2566 2.85181
79 2 -3.38836 -13.3731 -0.210086
80 2 -4.55473 -8.93888 0.298823
81 2 -5.41371 -13.4017 -0.41993
82 2 -7.24253 -15.5386 -3.87384
83 2 -4.65612 -13.5532 -6.76506
84 2 -3.1085 -12.5679 -2.75828
85 2 -4.19409 -14.0823 1.21946
86 2 0.0746521 -13.1537 2.44589
87 2 -0.807543 -12.5036 6.59304
88 2 2.56969 -9.63516 6.00886
89 2 0.191314 -13.1677 3.95847
90 2 -0.994381 -11.6583 8.06314
91 2 -1.04576 -7.09464 7.90407
92 2 3.38908 -7.806 8.13608
93 2 -0.0602679 -4.83914 8.4974
94 2 4.28623 -4.12148 9.92119
95 2 2.74225 -1.25026 12.7434
96 2 3.24895 -5.4061 14.0847
97 2 0.132745 -8.49191 12.7851
98 2 -3.87114 -10.7479 12.4408
99 2 -2.12685 -14.7975 12.2124
100 1 -5.9122 -16.8996 11.0002
ITEM: TIMESTEP
18000000
ITEM: NUMBER OF ATOMS
100
ITEM: BOX BOUNDS pp pp pp
-7.7370699999999999e+01 7.7370699999999999e+01
-7.7370699999999999e+01 7.7370699999999999e+01
-7.7370699999999999e+01 7.7370699999999999e+01
ITEM: ATOMS id type x y z
1 1 5.09441 -22.042 11.7735
2 2 1.35338 -20.678 9.86228
3 2 3.76111 -23.3293 7.18732
4 2 3.96108 -26.1429 10.6402
5 2 4.93753 -30.5463 11.0426
6 2 7.7403 -27.3496 11.5673
7 2 3.66352 -28.1333 13.161
8 2 -0.42604 -26.362 12.6824
9 2 3.7131 -25.0641 11.2035
10 2 0.0715726 -23.5612 9.11971
11 2 2.75077 -22.4506 5.95575
12 2 6.12089 -23.6124 3.5218
13 2 4.71073 -22.8765 -0.725667
14 2 4.78041 -18.9928 -2.94057
15 2 2.06733 -16.985 -6.0891
16 2 -0.637957 -19.3749 -3.34267
17 2 0.72716 -21.7882 0.182783
18 2 2.04482 -23.1907 -4.02915
19 2 4.12648 -26.4732 -6.28884
20 2 -0.0793469 -27.9333 -6.38952
21 2 0.878839 -25.7797 -10.13
22 2 0.679342 -22.2209 -7.39451
23 2 0.931522 -26.0615 -4.84429
24 2 -1.6546 -27.5345 -8.30379
25 2 1.87976 -29.4002 -6.20326
26 2 4.45998 -31.2006 -3.05893
27 2 8.14635 -28.7977 -3.29357
28 2 12.5721 -28.1806 -4.08219
29 2 9.18441 -25.2209 -5.01514
30 2 6.5476 -22.0206 -3.5876
31 2 7.79607 -18.1782 -5.26996
32 2 3.48406 -19.6941 -5.49183
33 2 5.11713 -16.613 -8.3525
34 2 2.78544 -13.12 -7.29517
35 2 -1.49568 -13.3376 -6.37818
36 2 3.05599 -13.5 -5.71148
37 2 2.71482 -10.5254 -2.58169
38 2 4.11934 -11.9772 1.43203
39 2 1.673 -8.99614 -1.50697
40 2 4.27585 -11.2198 1.437
41 2 1.09042 -8.41341 0.591032
42 2 2.78993 -5.57552 3.59899
43 2 5.92837 -8.65343 4.65815
44 2 7.24816 -7.19725 8.8151
45 2 6.65848 -8.42163 4.54115
46 2 7.10362 -7.87443 8.97727
47 2 6.56117 -11.1916 6.10894
48 2 6.73426 -7.78517 3.18078
49 2 5.79972 -9.15344 -1.06051
50 2 6.32612 -11.0313 -4.8626
51 2 8.8536 -8.35889 -7.27647
52 2 12.8832 -6.79741 -5.88243
53 2 8.87978 -8.95849 -6.0022
54 2 4.48276 -8.94994 -5.51673
55 2 4.87348 -7.68354 -1.29697
56 2 9.29711 -7.2267 -0.832981
57 2 5.90733 -5.00049 0.965375
58 2 7.14361 -3.83986 5.11749
59 2 6.65209 -4.3667 0.595636
60 2 10.8573 -5.16132 2.10067
61 2 14.8887 -3.57924 3.09812
62 2 12.2213 -0.568532 1.58309
63 2 16.2635 -2.4199 1.87927
64 2 16.3783 1.53402 3.80846
65 2 20.8854 1.4741 4.58644
66 2 20.6328 -0.28145 8.68902
67 2 21.913 1.59934 4.82678
68 2 20.2199 -2.18359 3.42227
69 2 23.8055 -0.809185 5.78811
70 2 20.7804 -1.78124 8.8865
71 2 22.6693 -3.03297 5.07765
72 2 20.9503 -6.30938 2.82157
73 2 19.5056 -3.45079 -0.257248
74 2 19.528 -4.02743 4.37023
75 2 17.5453 -7.76734 5.91468
76 2 13.7383 -5.83155 6.572
77 2 16.243 -8.63864 4.07464
78 2 19.7705 -10.3697 6.30672
79 2 16.8539 -11.6042 3.32669
80 2 20.0378 -14.3132 5.10394
81 2 20.3269 -11.4953 1.54034
82 2 16.9722 -13.4217 -0.783366
83 2 12.7177 -14.3496 0.241232
84 2 12.6325 -15.6213 -4.02067
85 2 15.5686 -16.7195 -7.17631
86 2 13.6969 -14.1893 -4.16629
87 2 11.4491 -12.0597 -7.42649
88 2 13.1406 -11.9906 -3.27449
89 2 17.6537 -12.2005 -2.28418
90 2 19.3005 -14.0013 1.42339
91 2 19.6944 -11.3229 -2.24088
92 2 23.4801 -13.3423 -1.71372
93 2 19.8787 -11.3064 -3.46487
94 2 23.2686 -9.90584 -5.83054
95 2 25.6667 -10.5373 -9.66889
96 2 29.4974 -12.3946 -10.6242
97 2 32.2607 -10.5489 -13.7283
98 2 35.9233 -12.6094 -12.6065
99 2 32.4038 -11.9748 -15.4873
100 1 32.5956 -7.61584 -15.3385
ITEM: TIMESTEP
20000000
ITEM: NUMBER OF ATOMS
100
ITEM: BOX BOUNDS pp pp pp
-7.7370699999999999e+01 7.7370699999999999e+01
-7.7370699999999999e+01 7.7370699999999999e+01
-7.7370699999999999e+01 7.7370699999999999e+01
ITEM: ATOMS id type x y z
1 1 20.2508 -11.8171 -4.39467
2 2 18.0109 -9.7185 -7.5332
3 2 15.0322 -13.1626 -8.08626
4 2 11.0961 -11.0601 -8.7571
5 2 12.0093 -6.71369 -7.1638
6 2 12.7748 -8.09163 -2.96843
7 2 10.5146 -4.0564 -2.603
8 2 9.06252 -6.82118 -5.98814