ITEM: TIMESTEP
51000
ITEM: NUMBER OF ATOMS
100
ITEM: BOX BOUNDS pp pp pp
-7.7370699999999999e+01 7.7370699999999999e+01
-7.7370699999999999e+01 7.7370699999999999e+01
-7.7370699999999999e+01 7.7370699999999999e+01
ITEM: ATOMS id type x y z
1 1 -4.96757 -15.1628 -34.0081
2 2 -5.62985 -19.6028 -33.9151
3 2 -2.73354 -21.377 -31.1584
4 2 -0.669854 -17.3357 -30.3578
5 2 3.02471 -16.843 -28.1982
6 2 7.43578 -17.8445 -27.3507
7 2 4.08132 -15.7574 -29.1678
8 2 1.8195 -18.7591 -26.8572
9 2 5.40744 -19.1321 -29.3795
10 2 5.67338 -21.5905 -25.6435
11 2 6.91817 -18.9316 -22.2305
12 2 8.28934 -19.8609 -26.2136
13 2 11.5801 -22.7839 -26.8438
14 2 7.68823 -21.8111 -24.6763
15 2 10.0218 -19.1112 -21.9284
16 2 10.1483 -20.7082 -17.783
17 2 7.10142 -19.0448 -15.0628
18 2 2.79377 -19.4829 -13.6165
19 2 4.59902 -20.5825 -17.7009
20 2 2.54835 -23.6607 -20.207
21 2 5.20852 -25.7536 -17.1247
22 2 8.0562 -26.7864 -13.7029
23 2 10.6742 -29.3959 -16.2106
24 2 9.51721 -26.7458 -12.7464
25 2 9.5612 -23.8875 -9.35514
26 2 6.13756 -22.7441 -6.46103
27 2 5.73939 -24.1006 -2.11807
28 2 8.1248 -24.3485 -6.0847
29 2 11.3061 -22.826 -9.13745
30 2 12.6645 -24.2164 -4.89175
31 2 14.6949 -20.1257 -4.70644
32 2 13.0813 -24.3875 -4.0162
33 2 11.7388 -24.0321 -8.19362
34 2 14.1823 -20.5568 -6.91034
35 2 12.5992 -18.9343 -3.00049
36 2 8.44742 -19.1423 -4.32017
37 2 4.04089 -19.3222 -4.28248
38 2 2.25703 -21.7404 -0.930721
39 2 5.88012 -21.9394 -3.69866
40 2 7.96087 -25.7842 -3.63217
41 2 7.04461 -22.4567 -0.84809
42 2 3.83017 -20.0931 0.906531
43 2 7.1758 -20.9064 -1.82896
44 2 7.34656 -16.7072 -3.07421
45 2 7.94784 -12.7982 -5.38558
46 2 5.10549 -10.8623 -2.23267
47 2 1.96489 -8.24422 -0.464991
48 2 1.79871 -4.04557 1.20813
49 2 5.83256 -2.70073 -0.490417
50 2 9.22304 -4.91754 -1.89979
51 2 7.71108 -8.73908 -2.92544
52 2 5.49388 -12.5914 -4.05424
53 2 7.54294 -12.1755 -0.105961
54 2 10.0522 -15.8411 -1.68252
55 2 13.8957 -15.7705 -3.20691
56 2 12.5546 -11.9783 -0.918818
57 2 15.5178 -9.4601 1.24482
58 2 13.159 -8.75319 5.12355
59 2 12.2195 -4.57203 6.69121
60 2 9.64098 -5.26738 10.3584
61 2 13.3521 -5.82862 7.80854
62 2 11.4798 -1.67128 7.71304
63 2 7.49256 -3.97532 6.90716
64 2 8.49478 -7.95812 8.37803
65 2 8.45569 -5.83955 12.3878
66 2 11.8722 -8.503 11.5636
67 2 12.6099 -4.16324 10.2918
68 2 8.00574 -3.62271 11.0799
69 2 11.8487 -1.2534 12.0716
70 2 14.1091 -1.52856 8.39693
71 2 16.617 -0.261032 11.9065
72 2 18.5555 0.92673 15.5963
73 2 15.657 0.0556237 12.2117
74 2 16.4326 -2.34669 15.69
75 2 13.5328 -4.27087 18.2183
76 2 11.202 -1.50221 20.7702
77 2 13.4657 -5.53979 19.8956
78 2 15.4251 -2.54002 22.8462
79 2 12.9886 -4.95074 25.8925
80 2 13.3835 -3.58133 21.6038
81 2 16.5932 -6.60576 20.8054
82 2 13.1683 -4.31902 19.2048
83 2 15.8977 -4.37489 15.27
84 2 20.2573 -5.33103 16.2767
85 2 23.0759 -8.34185 17.6745
86 2 25.4615 -11.6535 15.8763
87 2 21.4756 -10.6297 14.1382
88 2 23.744 -11.804 10.3795
89 2 27.8832 -12.6982 11.9173
90 2 23.7915 -13.8286 11.8907
91 2 19.5941 -14.7192 13.4872
92 2 18.7611 -12.5369 17.4036
93 2 18.362 -8.67551 15.4462
94 2 18.8081 -12.6112 16.6472
95 2 15.2125 -12.8259 19.3843
96 2 11.8019 -9.86822 19.6207
97 2 15.3341 -12.0105 21.1716
98 2 19.5125 -11.1494 22.7036
99 2 21.9559 -12.8189 26.2651
100 1 18.9283 -11.8766 22.8408
ITEM: TIMESTEP
52000
ITEM: NUMBER OF ATOMS
100
ITEM: BOX BOUNDS pp pp pp
-7.7370699999999999e+01 7.7370699999999999e+01
-7.7370699999999999e+01 7.7370699999999999e+01
-7.7370699999999999e+01 7.7370699999999999e+01
ITEM: ATOMS id type x y z
1 1 17.809 -18.9334 16.9053
2 2 19.1116 -22.9867 15.3165
3 2 16.1342 -24.2858 12.2175
4 2 14.0366 -23.2839 8.56049
5 2 12.5599 -18.9396 8.13833
6 2 8.94194 -20.2992 10.5668
7 2 6.25934 -18.8704 7.21932
8 2 8.61738 -21.4223 4.29812
9 2 6.89801 -17.5163 5.35359
10 2 3.63184 -16.4559 2.53523
11 2 7.38114 -14.5036 4.27834
12 2 11.1298 -12.3301 3.88101
13 2 15.6041 -12.8779 3.92908
14 2 16.0438 -13.5518 -0.505631
15 2 17.5987 -11.6795 3.27727
16 2 21.9711 -11.4124 4.28073
17 2 22.0284 -7.45567 6.60452
18 2 24.5849 -6.00209 3.23499
19 2 23.0272 -2.80179 0.263308
20 2 20.3091 -4.04272 -2.89328
21 2 19.4316 -4.60544 1.50918
22 2 15.2203 -4.86782 -0.359836
23 2 18.3426 -1.92456 -1.84419
24 2 17.238 1.10462 1.33505
25 2 13.6695 -0.450127 -0.715817
26 2 14.4317 -3.87551 2.21741
27 2 17.2178 -6.7315 0.470479
28 2 21.4379 -5.36593 -0.340907
29 2 20.3026 -1.0461 -1.30706
30 2 18.3169 -1.43732 -5.2696
31 2 14.0778 -1.94815 -6.49369
32 2 10.2421 -2.88749 -8.32485
33 2 10.5173 -6.65333 -6.0262
34 2 9.84754 -8.98593 -2.28252
35 2 13.589 -10.3299 -0.18843
36 2 14.4869 -11.7138 3.62239
37 2 11.2851 -12.5532 0.801627
38 2 8.50929 -13.1483 -2.94131
39 2 9.51785 -13.4046 -7.35275
40 2 4.99305 -14.4617 -7.68242
41 2 5.29533 -16.7344 -3.69534
42 2 7.61831 -13.5456 -1.0716
43 2 8.97172 -17.2433 1.16185
44 2 4.57047 -16.634 2.07649
45 2 6.57518 -16.8776 -2.01005
46 2 7.41403 -12.6894 -1.402
47 2 3.05493 -12.3287 -0.639223
48 2 3.10415 -14.3475 -4.81419
49 2 1.57413 -18.522 -6.04769
50 2 2.76954 -18.4581 -10.1441
51 2 3.8445 -15.2219 -7.31035
52 2 7.09083 -18.1079 -8.35703
53 2 3.91274 -17.1645 -5.4392
54 2 4.41955 -15.9507 -1.04368
55 2 7.70314 -15.3428 1.89881
56 2 10.0121 -18.777 0.747197
57 2 8.47037 -14.7176 -0.424667
58 2 8.71389 -19.3298 0.175479
59 2 4.60544 -18.0349 1.21998
60 2 4.19854 -22.0525 -0.307105
61 2 8.56363 -22.9141 0.851977
62 2 11.6721 -20.6746 2.82899
63 2 12.9962 -20.2447 6.91516
64 2 13.7995 -24.6768 6.89516
65 2 10.5846 -21.6145 5.85536
66 2 10.655 -23.5835 1.72252
67 2 10.032 -21.3081 5.55433
68 2 12.1038 -18.2181 7.89883
69 2 8.54783 -20.7911 7.82665
70 2 11.6773 -23.8405 8.89256
71 2 10.5554 -19.7244 9.14381
72 2 11.288 -18.4432 4.9629
73 2 9.67158 -18.9666 0.932783
74 2 7.20467 -15.9062 2.72613
75 2 5.17212 -15.8291 6.74964
76 2 9.76829 -16.5304 6.45231
77 2 7.63186 -13.9002 3.89074
78 2 7.47452 -12.7922 -0.479275
79 2 11.2863 -13.7577 -2.51943
80 2 13.5392 -17.0047 -4.47015
81 2 12.0888 -12.9409 -5.35481
82 2 12.8647 -17.2129 -6.13021
83 2 11.7241 -13.628 -8.65894
84 2 14.7859 -11.366 -10.8138
85 2 14.4951 -13.4631 -7.18132
86 2 15.0571 -9.22347 -5.66402
87 2 11.1673 -7.29215 -6.33887
88 2 7.95173 -8.69679 -9.07536
89 2 10.5497 -10.6918 -6.4294
90 2 8.22385 -6.9059 -6.37778
91 2 6.51332 -5.99224 -2.44329
92 2 2.01736 -5.49659 -1.84646
93 2 1.97776 -8.06766 -5.28894
94 2 5.16438 -10.0823 -7.43048
95 2 8.26106 -10.7696 -10.6301
96 2 4.676 -11.5815 -7.7775
97 2 6.8234 -14.9293 -5.7921
98 2 7.70486 -19.3486 -5.38376
99 2 9.08172 -15.3449 -6.88068
100 1 11.0353 -11.294 -5.7709
ITEM: TIMESTEP
53000
ITEM: NUMBER OF ATOMS
100
ITEM: BOX BOUNDS pp pp pp
-7.7370699999999999e+01 7.7370699999999999e+01
-7.7370699999999999e+01 7.7370699999999999e+01
-7.7370699999999999e+01 7.7370699999999999e+01
ITEM: ATOMS id type x y z
1 1 20.8471 13.1737 16.118
2 2 20.2252 8.90688 17.01
3 2 20.3499 5.1558 14.5544
4 2 21.3752 1.41323 16.1591
5 2 17.6182 -0.44395 14.8494
6 2 15.2589 -4.13626 14.367
7 2 19.6253 -5.32081 13.7274
8 2 21.1126 -6.87703 17.7545
9 2 17.6192 -6.03808 19.9504
10 2 14.5794 -9.46507 20.3439
11 2 14.6521 -13.4618 22.2619
12 2 16.2763 -10.3225 19.358
13 2 19.288 -9.06579 22.3895
14 2 15.7739 -6.41594 22.1808
15 2 17.8047 -10.4818 22.6186
16 2 14.8999 -11.1292 19.2063
17 2 14.1926 -7.58051 21.8671
18 2 11.3617 -10.9314 22.4249
19 2 7.32072 -8.75401 22.5535
20 2 10.9588 -10.1008 20.1583
21 2 13.1518 -13.2514 22.4614
22 2 9.64466 -11.7099 19.8248
23 2 12.4625 -15.0073 18.2491
24 2 9.7217 -14.1834 21.8766
25 2 8.98573 -12.7423 17.8577
26 2 9.34493 -11.3596 21.9734
27 2 9.73669 -14.2133 25.4084
28 2 7.72245 -11.5776 22.3183
29 2 8.29508 -10.0123 18.1848
30 2 10.7001 -12.6956 15.2458
31 2 14.9572 -12.8217 16.8976
32 2 18.0539 -13.4419 13.5328
33 2 21.177 -16.4524 12.7421
34 2 18.2896 -14.5237 15.4367
35 2 20.6937 -18.0676 15.7446
36 2 18.6588 -17.2913 11.7772
37 2 22.5066 -17.2845 9.80636
38 2 23.6865 -18.4314 5.52895
39 2 24.4338 -15.6709 9.16079
40 2 26.3759 -13.346 5.92952
41 2 22.1408 -12.4857 6.081
42 2 22.3721 -15.6921 3.26261
43 2 21.7721 -11.1889 4.34455
44 2 17.8451 -12.6622 6.06907
45 2 19.7115 -16.6999 5.0165
46 2 24.0572 -15.767 5.96359
47 2 21.5936 -11.8775 5.67657
48 2 20.5554 -9.65905 1.97841
49 2 18.7016 -6.83743 4.81421
50 2 21.3786 -10.5051 4.10332
51 2 18.6637 -14.144 5.04056
52 2 20.9609 -10.4112 5.50138
53 2 16.7937 -9.05168 4.11664
54 2 16.6313 -8.61647 -0.32395
55 2 19.5874 -9.28778 2.97898
56 2 23.5255 -9.53776 0.689415
57 2 23.3799 -5.8801 -2.28537
58 2 19.2721 -4.06004 -2.07852
59 2 16.0438 -3.14242 -5.00548
60 2 12.9896 -4.24712 -8.19289
61 2 10.3178 -2.04874 -11.2193
62 2 12.4303 -2.94123 -15.2043
63 2 14.579 -6.64366 -16.5546
64 2 10.2981 -7.04448 -15.3764
65 2 6.59469 -9.2843 -15.7177
66 2 3.86299 -6.83489 -13.4925
67 2 8.21674 -7.0813 -14.5194
68 2 5.94213 -3.30272 -15.552
69 2 3.98873 0.751731 -14.9055
70 2 0.777567 -1.48044 -12.4166
71 2 1.86243 -5.70571 -13.954
72 2 2.27691 -9.73974 -16.0726
73 2 4.98545 -13.2484 -15.7584
74 2 3.29163 -16.1713 -18.7581
75 2 1.07493 -18.2003 -21.7855
76 2 -0.724603 -22.1153 -20.6595
77 2 -1.81774 -18.4823 -18.3266
78 2 -0.147719 -22.2737 -19.7416
79 2 -3.5491 -22.7669 -22.9947
80 2 -0.34093 -23.5516 -19.9029
81 2 -2.66226 -20.6223 -17.6096
82 2 -5.24758 -21.5263 -20.9935
83 2 -3.79127 -25.5567 -22.8314
84 2 -4.05882 -22.3334 -19.9735
85 2 -1.63018 -25.5465 -18.0761
86 2 1.20464 -28.8263 -18.8158
87 2 -2.49131 -26.491 -18.2167
88 2 -2.04475 -25.0893 -22.738
89 2 -5.40968 -27.0961 -24.6991
90 2 -6.52549 -28.0518 -20.4665
91 2 -5.52498 -23.6625 -21.9257
92 2 -0.983148 -23.7728 -23.1405
93 2 -5.34842 -24.7862 -24.4927
94 2 -5.85091 -28.6294 -27.0711
95 2 -4.58093 -32.1094 -24.7352
96 2 -2.30809 -35.2041 -26.7688
97 2 0.511674 -34.5395 -23.2605
98 2 3.26976 -33.0037 -19.7816
99 2 4.6712 -35.0597 -16.387
100 1 3.82576 -34.2803 -20.4409
ITEM: TIMESTEP
54000
ITEM: NUMBER OF ATOMS
100
ITEM: BOX BOUNDS pp pp pp
-7.7370699999999999e+01 7.7370699999999999e+01
-7.7370699999999999e+01 7.7370699999999999e+01
-7.7370699999999999e+01 7.7370699999999999e+01
ITEM: ATOMS id type x y z
1 1 25.4541 -24.4542 14.9661
2 2 23.0169 -20.5779 14.8573
3 2 26.6135 -22.3448 16.6339
4 2 28.8394 -23.0895 12.8066
5 2 27.1523 -19.2132 14.3063
6 2 29.5058 -17.9216 10.6829
7 2 29.2773 -16.4091 6.55397
8 2 28.1631 -12.1172 7.76857
9 2 24.5176 -13.2822 10.0962
10 2 25.9334 -17.1131 12.2977
11 2 22.6966 -14.0319 13.6533
12 2 20.0401 -11.2109 15.9741
13 2 21.3955 -6.90884 14.7953
14 2 17.1975 -5.21061 13.6
15 2 14.7807 -7.7306 11.0641
16 2 13.5871 -11.1788 13.4481
17 2 10.6605 -9.759 10.2292
18 2 7.15222 -8.21188 12.6507
19 2 8.57339 -3.91969 12.3746
20 2 6.73579 -7.60079 11.199
21 2 6.82896 -3.74175 13.3299
22 2 8.12233 -5.66406 9.52749
23 2 5.73108 -7.85039 6.46966
24 2 5.40556 -3.61822 5.55599
25 2 4.28079 -2.68505 1.33693
26 2 7.07928 -4.68742 4.3786
27 2 2.67085 -4.22499 3.37306
28 2 2.19486 -7.45293 0.224457
29 2 4.44759 -10.0627 3.1042
30 2 5.05397 -6.95346 -0.221805
31 2 8.03318 -6.50198 -3.40415
32 2 8.07595 -8.06318 -7.66046
33 2 5.96167 -11.7961 -6.16676
34 2 6.71818 -7.27063 -6.21914
35 2 6.27876 -6.26101 -1.9341
36 2 9.70163 -7.60412 -4.27383
37 2 9.82269 -10.74 -7.48905
38 2 8.02868 -14.5797 -6.05316
39 2 10.2124 -16.942 -2.8805
40 2 11.1208 -15.9761 1.45569
41 2 9.36396 -14.5226 5.47107
42 2 12.7386 -12.5082 3.24642
43 2 12.067 -8.21536 1.4865
44 2 9.45005 -4.64335 1.25175
45 2 9.87456 -8.31067 3.98377
46 2 6.7211 -10.9433 3.21792
47 2 3.51088 -9.03114 5.76809
48 2 -0.952053 -8.2745 6.3026
49 2 2.68124 -10.4727 4.71612
50 2 0.676038 -12.885 1.63282
51 2 3.14985 -14.3843 -1.80611
52 2 7.24768 -15.7082 -0.145626
53 2 6.05779 -18.8748 2.75822
54 2 10.0037 -18.2275 0.869437
55 2 11.1423 -22.0263 -1.08675
56 2 7.41848 -19.5898 -0.344995
57 2 8.53133 -15.4482 -2.22997
58 2 9.02798 -19.8381 -2.31745
59 2 12.4427 -19.2305 -5.13917
60 2 11.7658 -23.4266 -7.01223
61 2 8.61199 -26.5795 -6.36872
62 2 3.95942 -26.5645 -6.85473
63 2 3.54388 -30.8513 -7.3844
64 2 0.719714 -30.3515 -10.6901
65 2 -0.180454 -27.3406 -14.1621
66 2 -2.29714 -23.688 -15.6808
67 2 -1.7037 -27.35 -13.0975
68 2 0.924404 -30.1426 -10.7311
69 2 -3.25812 -28.7096 -10.7046
70 2 -2.44481 -32.8373 -11.2759
71 2 -0.0885492 -30.1157 -8.56447
72 2 1.46417 -29.6059 -12.5153
73 2 2.1889 -25.1617 -13.5041
74 2 5.6217 -22.434 -12.48
75 2 4.62323 -18.0646 -13.0157
76 2 1.32611 -19.94 -10.0144
77 2 4.13199 -16.962 -7.63938
78 2 5.57958 -15.1401 -4.07131
79 2 1.72862 -13.0271 -2.83186
80 2 5.40046 -14.4922 -0.704067
81 2 7.68741 -15.9341 2.89875
82 2 3.97673 -16.1834 0.648903
83 2 7.02867 -13.6621 2.60258
84 2 11.2291 -11.8804 2.97663
85 2 13.0742 -8.69866 0.600129
86 2 10.3669 -11.6574 -1.42257
87 2 9.76134 -9.21871 -4.7455
88 2 12.9039 -10.6216 -7.91295
89 2 17.2492 -9.71614 -8.19646
90 2 18.8277 -9.55152 -12.4428
91 2 16.8558 -8.42354 -8.74777
92 2 16.1317 -4.35578 -10.3737
93 2 19.7995 -6.07649 -12.101
94 2 20.8334 -5.60295 -7.90962
95 2 20.2379 -4.5829 -12.1641
96 2 22.4012 -1.25041 -10.2375
97 2 24.761 -1.96508 -6.62323
98 2 26.8767 0.553478 -3.43692
99 2 28.0189 -3.30621 -1.41132
100 1 28.8055 0.948763 -0.520454
ITEM: TIMESTEP
55000
ITEM: NUMBER OF ATOMS
100
ITEM: BOX BOUNDS pp pp pp
-7.7370699999999999e+01 7.7370699999999999e+01
-7.7370699999999999e+01 7.7370699999999999e+01
-7.7370699999999999e+01 7.7370699999999999e+01
ITEM: ATOMS id type x y z
1 1 -5.07468 -25.0299 -23.2176
2 2 -2.64159 -21.4792 -21.2103
3 2 -5.97994 -20.6831 -18.0746
4 2 -6.47451 -24.5839 -15.9035
5 2 -2.03226 -24.2276 -15.9267
6 2 -1.7455 -19.9569 -16.9069
7 2 -0.941297 -15.9038 -17.7602
8 2 3.12488 -17.6443 -16.5968
9 2 3.02239 -13.4201 -17.912
10 2 2.38451 -10.1895 -20.874
11 2 4.05937 -13.9519 -19.4715
12 2 0.82243 -13.2151 -22.4104
13 2 0.15058 -13.7321 -18.0734
14 2 -2.21304 -16.0531 -14.8337
15 2 -3.26794 -14.0896 -18.4714
16 2 -5.58781 -14.1339 -14.7329
17 2 -1.33638 -13.9899 -13.0763
18 2 -1.38575 -18.5889 -13.0304
19 2 -5.00913 -16.2128 -14.0937
20 2 -2.96857 -19.2505 -11.549
21 2 0.404583 -19.5086 -8.39439
22 2 3.28574 -16.5304 -10.1344
23 2 -0.314123 -13.8243 -10.6579
24 2 3.44635 -14.6478 -12.7204
25 2 5.676 -18.6466 -13.8799
26 2 2.16724 -18.1911 -16.583
27 2 2.21946 -21.6906 -19.6531
28 2 5.80169 -21.8562 -17.2141
29 2 4.96135 -17.4763 -17.5567
30 2 7.76931 -20.6673 -17.6398
31 2 9.39605 -23.592 -14.5785
32 2 11.1219 -26.5548 -11.5475
33 2 15.0731 -26.2048 -9.3066
34 2 11.323 -24.0148 -7.7686
35 2 9.50843 -26.3142 -4.55072
36 2 8.97536 -26.2781 -0.136679
37 2 5.51991 -28.4824 1.62601
38 2 8.32937 -27.7938 -1.44115
39 2 10.926 -30.6116 -3.47845
40 2 8.25956 -31.2092 -0.108371
41 2 5.14153 -27.96 0.189894
42 2 5.3186 -26.0649 4.26137
43 2 9.58938 -28.0227 4.01199
44 2 11.4183 -27.6983 -0.226385
45 2 12.6685 -23.4047 -0.507328
46 2 13.3964 -20.6438 -3.87861
47 2 15.6187 -16.9294 -2.41346
48 2 14.9023 -12.5739 -3.07649
49 2 12.7014 -8.57115 -2.26601
50 2 12.3525 -8.70109 -6.74913
51 2 8.15275 -7.49221 -8.30436
52 2 11.8952 -10.2595 -8.30167
53 2 8.07825 -8.43568 -6.87434
54 2 10.409 -11.9638 -5.43585
55 2 11.9801 -12.6657 -9.63382
56 2 15.3819 -10.3097 -7.5321
57 2 13.6106 -12.8972 -4.28902
58 2 10.0487 -13.4291 -1.43608
59 2 14.3334 -14.4449 -0.280836
60 2 17.8348 -11.4464 0.883936
61 2 16.5289 -7.50397 -0.35868
62 2 13.3796 -7.65227 2.83599
63 2 13.3368 -9.39167 6.93084
64 2 13.9769 -6.20066 9.89441
65 2 10.3968 -7.14933 12.3891
66 2 6.55902 -9.35239 11.4532
67 2 9.44921 -9.68805 8.05993
68 2 9.71238 -7.98744 3.93694
69 2 7.63304 -9.30014 7.62817
70 2 9.03758 -12.0077 10.6734
71 2 12.8897 -12.7859 12.5558
72 2 16.7413 -14.3502 14.2249
73 2 20.2461 -16.2672 16.2639
74 2 19.4245 -13.9607 20.0948
75 2 19.6539 -16.5965 16.5565
76 2 21.0451 -14.4129 13.0574
77 2 22.9193 -10.3865 12.9337
78 2 19.2675 -8.24373 12.6829
79 2 16.8833 -10.4588 15.6846
80 2 18.4198 -10.166 11.7954
81 2 19.3147 -8.37896 15.8731
82 2 18.6932 -4.90339 13.2378
83 2 14.7228 -3.01427 14.3686
84 2 18.3504 -2.86333 11.79
85 2 22.4281 -1.04419 10.145
86 2 19.1797 1.63835 11.7718
87 2 22.388 -1.13137 9.85
88 2 20.1203 -4.81749 10.7143
89 2 20.4649 -7.92108 13.891
90 2 22.0058 -4.66259 16.5728
91 2 19.2769 -6.67183 19.658
92 2 17.8873 -2.45599 18.7896
93 2 20.5226 0.976057 19.6591
94 2 19.1755 5.32154 18.8839
95 2 22.0075 3.27935 21.4298
96 2 24.1082 3.34265 25.6869
97 2 28.663 3.24266 25.3274
98 2 30.3989 -0.689333 26.7522
99 2 29.9377 -2.22154 30.7831
100 1 33.9247 -0.883738 29.4544
ITEM: TIMESTEP
56000
ITEM: NUMBER OF ATOMS
100
ITEM: BOX BOUNDS pp pp pp
-7.7370699999999999e+01 7.7370699999999999e+01
-7.7370699999999999e+01 7.7370699999999999e+01
-7.7370699999999999e+01 7.7370699999999999e+01
ITEM: ATOMS id type x y z
1 1 -15.9814 -34.2098 -24.8442
2 2 -13.9062 -30.2832 -24.0949
3 2 -10.2177 -32.1721 -25.3929
4 2 -9.61421 -29.1163 -21.911
5 2 -11.0769 -28.678 -26.3786
6 2 -9.60401 -25.9004 -22.6272
7 2 -5.29594 -24.5091 -22.063
8 2 -6.86793 -27.5966 -25.0671
9 2 -3.77656 -29.7678 -27.6802
10 2 -4.11763 -27.5661 -23.665
11 2 0.372308 -26.5347 -23.9534
12 2 2.40717 -24.0418 -27.064
13 2 3.68212 -26.4873 -30.55
14 2 7.20371 -25.4196 -33.0294
15 2 7.8228 -21.4292 -34.9114
16 2 8.88301 -19.3353 -31.1695
17 2 9.75206 -21.9399 -27.75
18 2 8.06716 -18.0401 -29.1161
19 2 6.4615 -14.4694 -27.2037
20 2 10.0754 -16.8261 -25.6936
21 2 7.70439 -16.468 -21.9605
22 2 5.1488 -17.9375 -18.485
23 2 5.21126 -21.1451 -21.4737
24 2 3.64294 -22.7674 -17.5714
25 2 0.217833 -20.805 -19.8543
26 2 4.22313 -19.2425 -18.4054
27 2 2.88227 -22.3267 -15.599
28 2 2.95152 -18.4373 -17.9436
29 2 7.17657 -17.0024 -17.9732
30 2 6.57807 -12.9603 -18.857
31 2 5.56363 -16.6474 -16.4432
32 2 5.3766 -16.9854 -12.034
33 2 6.26193 -15.4092 -16.3834
34 2 7.54794 -13.8789 -12.3841
35 2 5.12198 -15.534 -9.03401
36 2 1.67085 -18.1249 -8.98736
37 2 2.68694 -19.3136 -4.89782
38 2 7.21904 -19.1617 -4.95424
39 2 5.76825 -14.9679 -5.19359
40 2 8.98494 -12.5606 -3.21621
41 2 10.1177 -16.846 -3.87813
42 2 7.90999 -14.0496 -1.34049
43 2 5.78236 -14.6169 -5.40914
44 2 7.31991 -10.4574 -4.28836
45 2 9.90269 -13.8562 -5.73169
46 2 10.2818 -11.9323 -1.56323
47 2 11.5315 -8.65084 0.797034
48 2 14.715 -5.47891 1.67631
49 2 14.5197 -7.83078 5.40022
50 2 16.9028 -7.5114 9.47133
51 2 20.4179 -6.44757 6.98696
52 2 20.4333 -9.3971 3.58724
53 2 18.5364 -6.67112 6.47077
54 2 18.2126 -4.22026 10.1573
55 2 15.7478 -3.23501 6.53872
56 2 14.7066 -0.0987605 9.6502
57 2 12.6908 1.7309 6.07518
58 2 15.2659 3.23781 9.55292
59 2 14.694 -0.696845 10.8946
60 2 18.7694 0.0386899 12.5355
61 2 21.7216 3.18288 13.2821
62 2 24.8652 0.345299 12.1164
63 2 25.2864 3.01642 15.7392
64 2 26.3875 6.67814 18.1832
65 2 25.9899 2.22731 18.722
66 2 26.1444 -1.47323 16.1924
67 2 24.3983 -5.18877 18.3102
68 2 23.2652 -7.40196 21.9651
69 2 23.2675 -11.8311 22.8718
70 2 21.5171 -12.103 18.6982
71 2 25.7944 -12.5158 19.9943
72 2 27.8416 -9.76798 17.2406
73 2 24.1434 -10.9041 15.2355
74 2 24.9222 -6.42908 16.4627
75 2 24.8211 -10.3508 19.1261
76 2 26.7108 -9.16743 15.3641
77 2 24.098 -12.3356 17.1474
78 2 22.4193 -16.1142 19.0831
79 2 20.7696 -20.1022 19.8564
80 2 18.6423 -22.8544 17.0829
81 2 20.2269 -18.8664 18.0959
82 2 16.622 -16.5353 16.5481
83 2 12.216 -15.9566 16.3604
84 2 10.8674 -12.6797 19.2138
85 2 6.64588 -14.4839 19.0487
86 2 9.2759 -17.9037 20.5112
87 2 6.56968 -16.7294 23.6514
88 2 7.03025 -13.4629 20.7921
89 2 10.7446 -12.7767 18.1101
90 2 8.65443 -11.1813 21.7684
91 2 6.75299 -6.9807 22.0076
92 2 10.6652 -5.09881 23.0691
93 2 12.9624 -8.90963 22.9424
94 2 11.7466 -5.4323 20.3095
95 2 15.7888 -4.67199 18.7764
96 2 17.2353 -1.68643 15.7199
97 2 15.4659 -5.80177 16.1818
98 2 15.7629 -6.51808 11.8053
99 2 11.404 -8.04019 12.1204
100 1 12.3498 -12.2725 10.7509
ITEM: TIMESTEP
57000
ITEM: NUMBER OF ATOMS
100
ITEM: BOX BOUNDS pp pp pp
-7.7370699999999999e+01 7.7370699999999999e+01
-7.7370699999999999e+01 7.7370699999999999e+01
-7.7370699999999999e+01 7.7370699999999999e+01
ITEM: ATOMS id type x y z
1 1 18.9231 -10.4641 6.22097
2 2 22.7865 -7.98624 6.0123
3 2 24.0703 -6.97457 10.125
4 2 27.9701 -5.03614 11.1789
5 2 26.6445 -1.01643 9.91408
6 2 24.1412 0.333921 13.4642
7 2 20.271 -1.98716 14.5675
8 2 24.0636 -4.49512 15.1863
9 2 24.6274 -0.850883 12.388
10 2 24.2332 -5.30835 11.2175
11 2 27.0922 -2.00555 11.1761
12 2 23.7961 -3.90955 13.4102
13 2 21.1431 -3.02842 10.1645
14 2 17.3677 -2.73994 7.75709
15 2 17.199 -3.17474 12.2493
16 2 18.4284 -7.43838 11.7647
17 2 17.6659 -10.3362 8.43965
18 2 13.8521 -9.69794 6.07078
19 2 12.5106 -5.4632 6.72894
20 2 16.9869 -5.56878 5.87853
21 2 20.3577 -8.13315 4.95685
22 2 20.4285 -7.90348 0.561798
23 2 16.9635 -5.86985 -0.994394
24 2 19.6325 -2.09611 -0.967596
25 2 18.821 -6.38105 -2.47511
26 2 16.1932 -7.71817 0.86945
27 2 20.4238 -7.99126 -1.23377
28 2 23.996 -10.0429 0.160775
29 2 21.6824 -13.5549 -1.58596
30 2 19.8351 -12.9606 2.30205
31 2 17.6023 -9.45355 0.608728
32 2 19.3667 -13.4338 -0.460798
33 2 18.456 -9.79611 2.23
34 2 17.0307 -13.4927 0.212038
35 2 15.4633 -12.4409 -3.77161
36 2 14.5491 -11.4724 0.616523
37 2 16.3917 -15.1799 -0.870981
38 2 14.9671 -12.577 -4.32518
39 2 11.1423 -11.105 -5.68132
40 2 6.83509 -10.9084 -7.04543
41 2 4.89285 -7.78516 -4.63338
42 2 2.06672 -10.8517 -6.4868
43 2 -2.20071 -12.248 -5.19763
44 2 -1.97687 -12.0677 -0.798239
45 2 -3.91749 -15.1931 1.51256
46 2 -6.49361 -18.8429 0.887926
47 2 -2.51388 -17.9131 1.82949
48 2 0.145518 -14.4827 0.214131
49 2 3.37833 -13.7914 -2.74639
50 2 5.1053 -17.1799 -4.94821
51 2 8.8503 -18.1669 -7.5014
52 2 8.52664 -22.6834 -8.54533
53 2 4.85463 -24.4147 -6.64661
54 2 5.38787 -24.7215 -11.1885
55 2 8.02769 -22.0743 -8.60746
56 2 6.69505 -25.3517 -11.2415
57 2 5.60271 -21.418 -9.33521
58 2 5.77069 -17.0317 -8.40915
59 2 6.6246 -14.9894 -4.54542
60 2 8.08565 -19.1261 -5.32135
61 2 8.16723 -14.9888 -3.96994
62 2 10.3055 -13.4294 -7.55967
63 2 11.5341 -15.6729 -3.87726
64 2 10.1177 -19.4861 -2.43327
65 2 8.83211 -22.8432 0.309333
66 2 7.88482 -20.5111 -3.39401
67 2 4.76868 -18.0749 -1.26245
68 2 0.94559 -15.7015 -1.11479
69 2 0.213587 -18.9659 1.78582
70 2 4.51636 -19.8715 1.80311
71 2 3.07205 -19.0738 6.01388
72 2 4.93723 -23.1056 6.42064
73 2 0.958633 -24.9837 7.06996
74 2 0.080649 -27.7609 10.4498
75 2 0.713013 -27.4725 6.13123
76 2 -1.29526 -27.4666 2.15859
77 2 2.23428 -24.574 2.35197
78 2 6.31623 -22.8491 1.01788
79 2 2.71884 -22.563 -1.64704
80 2 6.39396 -24.5386 -3.49096
81 2 7.03113 -25.3407 -7.67821
82 2 4.44248 -21.7129 -7.72795
83 2 8.24328 -20.5683 -9.6484
84 2 9.69374 -24.8924 -8.94518
85 2 7.49628 -21.7928 -6.63815
86 2 9.64568 -21.9618 -2.70405
87 2 7.73552 -17.9459 -2.19361
88 2 8.20471 -15.2847 -5.80648
89 2 12.3886 -16.3177 -7.27777
90 2 7.67811 -16.999 -6.89928
91 2 5.01132 -14.3089 -9.3147
92 2 7.30244 -11.2238 -7.11062
93 2 7.04968 -6.91169 -8.07192
94 2 5.61328 -6.9587 -12.3045
95 2 7.69491 -10.5073 -10.5864
96 2 6.43452 -9.08233 -6.67454
97 2 8.1591 -9.17201 -2.38226
98 2 3.9804 -7.11842 -2.91762
99 2 5.77586 -5.40999 0.858952
100 1 2.83976 -4.63079 4.17181
ITEM: TIMESTEP
58000
ITEM: NUMBER OF ATOMS
100
ITEM: BOX BOUNDS pp pp pp
-7.7370699999999999e+01 7.7370699999999999e+01
-7.7370699999999999e+01 7.7370699999999999e+01
-7.7370699999999999e+01 7.7370699999999999e+01
ITEM: ATOMS id type x y z
1 1 21.3487 -3.41677 27.9688
2 2 17.505 -1.29092 28.5194
3 2 19.7989 -0.893703 24.7998
4 2 15.5345 -0.992367 23.1916
5 2 19.3518 -0.38986 21.4035
6 2 23.7768 -0.040703 20.8933
7 2 21.1355 2.07957 23.7827
8 2 24.5063 -0.285084 25.6721
9 2 23.3132 2.08064 22.0316
10 2 19.8967 2.79082 19.0843
11 2 16.9157 -0.479868 20.0635
12 2 19.1099 1.85165 22.9057
13 2 21.0665 -0.714521 26.1107
14 2 23.7479 -2.72534 29.0867
15 2 22.4969 -0.412981 32.3013
16 2 23.1824 -3.04386 28.7463
17 2 20.8996 -2.20849 24.9816
18 2 23.3114 -0.492455 28.1362
19 2 24.5367 1.73653 24.3462
20 2 24.7953 4.78648 21.0431
21 2 21.3548 4.91188 23.7345
22 2 18.5128 2.28979 21.4982
23 2 18.847 1.60461 17.0299
24 2 18.0187 2.23971 21.2923
25 2 16.4657 -1.11002 18.3626
26 2 18.3415 -4.17242 16.0689
27 2 20.9077 -7.33647 18.0395
28 2 23.4487 -6.54033 14.1386
29 2 24.5978 -4.4056 17.8808
30 2 28.5522 -1.97848 17.701
31 2 31.2062 -0.599056 20.8698
32 2 30.1346 0.486116 25.3735
33 2 28.7398 -3.76482 24.8493
34 2 27.0093 -7.02678 22.6945
35 2 24.0157 -8.85044 25.3943
36 2 26.5232 -7.22819 22.2101
37 2 26.701 -10.9208 19.2244
38 2 22.4254 -12.2539 18.1749
39 2 22.1496 -14.9123 14.5946
40 2 18.305 -14.8365 12.4594
41 2 16.1351 -14.9457 8.26643
42 2 18.8224 -12.5892 11.1047
43 2 15.2786 -12.8911 8.38795
44 2 18.3495 -16.1857 8.67391
45 2 20.8095 -14.775 5.21869
46 2 18.0639 -18.2563 3.85424
47 2 16.3604 -15.6865 0.58063
48 2 12.8526 -16.3817 -2.39006
49 2 8.42462 -16.1165 -3.26586
50 2 9.61251 -14.4762 0.807774
51 2 12.7141 -13.8396 3.90876
52 2 14.478 -10.1749 1.85277
53 2 12.4491 -8.18511 -1.76039
54 2 8.39518 -6.97613 -3.66084
55 2 5.60291 -4.52892 -1.09916
56 2 4.73576 -8.95018 -0.66086
57 2 5.03031 -7.3686 -4.85703
58 2 1.26081 -5.71236 -5.03
59 2 0.97337 -6.50118 -9.4122
60 2 5.44328 -6.77337 -10.5689
61 2 4.85835 -11.2502 -11.7096
62 2 3.85435 -15.2595 -13.345
63 2 3.37747 -17.3004 -17.1711
64 2 2.52975 -19.8762 -20.982
65 2 6.07801 -18.6364 -18.4628
66 2 5.09184 -15.5151 -15.419
67 2 1.45154 -17.2206 -16.9648
68 2 4.8523 -19.207 -19.068
69 2 1.8579 -20.5405 -15.9027
70 2 -0.765042 -19.1858 -19.0975
71 2 -1.3878 -23.4815 -18.657
72 2 1.14347 -25.3607 -15.311
73 2 -0.395229 -21.3565 -14.4769
74 2 -4.00282 -22.9677 -12.2212
75 2 -1.9843 -23.9136 -16.0747
76 2 0.16725 -21.5624 -19.114
77 2 1.30302 -25.5557 -21.1908
78 2 -2.44018 -26.9313 -22.9655
79 2 -0.595144 -26.3477 -27.1546
80 2 3.60353 -25.7859 -28.9415
81 2 3.12381 -29.5712 -26.4018
82 2 1.21697 -28.6335 -22.3884
83 2 -2.60716 -28.8164 -24.5139
84 2 -1.01403 -29.2085 -20.4474
85 2 -3.84361 -32.5625 -19.9209
86 2 0.102138 -34.5158 -20.0403
87 2 -2.23739 -32.0264 -23.0248
88 2 -5.89901 -31.1496 -20.728
89 2 -5.36169 -27.075 -22.9417
90 2 -2.02672 -27.4411 -26.0675
91 2 -2.79768 -24.6773 -22.7723
92 2 -2.1533 -28.5261 -24.7379
93 2 -2.76818 -27.4543 -29.0306
94 2 -5.51164 -28.5667 -32.3798
95 2 -2.16803 -30.8566 -34.6437
96 2 -5.46111 -31.6034 -37.8687
97 2 -9.39086 -32.8628 -36.2263
98 2 -6.09067 -35.8966 -36.6417
99 2 -6.57954 -38.2547 -32.733
100 1 -8.74978 -37.3332 -36.6478
ITEM: TIMESTEP
59000
ITEM: NUMBER OF ATOMS
100
ITEM: BOX BOUNDS pp pp pp
-7.7370699999999999e+01 7.7370699999999999e+01
-7.7370699999999999e+01 7.7370699999999999e+01
-7.7370699999999999e+01 7.7370699999999999e+01
ITEM: ATOMS id type x y z
1 1 13.643 -19.9788 17.1549
2 2 14.7484 -16.6686 19.6628
3 2 18.2718 -15.2805 21.9656
4 2 20.6961 -12.1902 24.0922
5 2 20.657 -11.7033 19.533
6 2 21.6507 -15.3046 17.6646
7 2 20.4256 -14.4537 13.4836
8 2 17.6633 -11.1292 12.2957
9 2 13.1737 -11.7223 11.8299
10 2 15.5114 -14.8284 9.39661
11 2 14.8457 -13.2503 5.22302
12 2 11.1889 -15.0577 4.04745
13 2 8.20984 -13.0217 1.80107
14 2 6.60534 -17.154 2.10576
15 2 3.61766 -13.6913 1.90192
16 2 4.02595 -9.26701 2.51116
17 2 5.2586 -5.49585 4.45199
18 2 2.85915 -3.66117 1.15127
19 2 2.81465 -5.94633 5.19442
20 2 -0.40491 -7.11028 8.08599
21 2 -0.396678 -4.04389 11.0382
22 2 0.130755 -3.89332 6.53202
23 2 2.08563 -3.41961 2.59617
24 2 1.68847 -6.03903 6.23159
25 2 6.1301 -6.71405 6.2944
26 2 5.40809 -8.88628 2.49722
27 2 7.56213 -5.58978 0.576287
28 2 11.6984 -6.64567 2.37259
29 2 11.1461 -7.57509 -1.8562
30 2 7.44624 -4.71585 -2.19117
31 2 3.45364 -2.96205 -0.973528
32 2 4.96995 -2.1533 3.25298
33 2 2.95533 -0.996208 7.21866
34 2 5.55988 -3.93893 8.83618
35 2 4.75857 -2.16526 4.67071
36 2 0.121833 -2.52935 5.44694
37 2 3.22438 -4.48213 7.94901
38 2 6.4346 -7.49132 7.61919
39 2 4.9012 -5.11428 3.92068
40 2 8.67648 -6.98953 2.118
41 2 9.06128 -10.5734 4.77148
42 2 13.0544 -8.24964 3.70801
43 2 15.5268 -9.33467 0.0233838
44 2 17.2126 -11.8746 -3.32683
45 2 21.0579 -13.8856 -4.72725
46 2 21.1004 -17.1971 -7.76516
47 2 17.7507 -20.4036 -8.63993
48 2 18.2193 -21.5317 -12.8313
49 2 15.3879 -22.8567 -9.62061
50 2 17.4533 -18.8231 -9.71501
51 2 16.0309 -23.2378 -10.1645
52 2 17.2243 -19.5231 -7.78804
53 2 16.6123 -18.9269 -3.29891
54 2 12.6083 -17.8165 -4.86121
55 2 12.4473 -21.8025 -6.47403
56 2 13.3415 -26.1586 -6.34702
57 2 10.7556 -29.3273 -7.88329
58 2 10.2212 -25.6938 -5.31725
59 2 7.43685 -23.4288 -2.66141
60 2 8.02923 -25.7679 -6.31306
61 2 7.94752 -21.2638 -6.90649
62 2 8.72894 -24.4009 -10.0274
63 2 5.39639 -22.7767 -7.96118
64 2 2.02545 -20.5742 -6.02846
65 2 1.51863 -16.7212 -4.00478
66 2 3.65322 -13.9816 -1.3835
67 2 0.328611 -14.9935 -3.94277
68 2 4.29803 -16.0139 -2.16621
69 2 0.748257 -18.3316 -3.01205
70 2 4.81574 -17.4971 -1.48616
71 2 8.82384 -18.7138 -1.18805
72 2 5.1428 -20.3222 0.970732
73 2 7.27415 -16.5434 -0.182053
74 2 8.80446 -12.6691 -2.11026
75 2 11.404 -13.3214 -5.75888
76 2 13.2675 -9.81018 -7.55174
77 2 16.584 -12.5931 -6.88057
78 2 17.2109 -11.3606 -2.83794
79 2 15.9682 -15.532 -2.87337
80 2 17.8437 -19.5464 -2.14309
81 2 17.6418 -18.0028 -6.34819
82 2 14.8633 -17.3058 -3.06549
83 2 13.8338 -17.9961 1.14929
84 2 10.3588 -19.5778 -1.13247
85 2 5.71309 -20.0602 -1.68643
86 2 2.49442 -17.3321 -0.614397
87 2 6.47304 -19.2491 -1.22958
88 2 10.1816 -17.125 0.0497673
89 2 11.5272 -18.6454 -4.065
90 2 14.503 -18.7846 -7.52434
91 2 18.3639 -17.0077 -8.76455
92 2 21.4607 -15.1784 -5.98662
93 2 19.5915 -11.7909 -8.01013
94 2 16.3261 -10.1521 -10.6669
95 2 18.4771 -11.6322 -6.99022
96 2 17.4761 -12.3566 -11.3008
97 2 16.2786 -11.7338 -15.5687
98 2 16.3918 -8.30338 -12.6308
99 2 18.4832 -6.19863 -9.08829
100 1 20.4865 -6.99328 -5.29904
ITEM: TIMESTEP
60000
ITEM: NUMBER OF ATOMS
100
ITEM: BOX BOUNDS pp pp pp
-7.7370699999999999e+01 7.7370699999999999e+01
-7.7370699999999999e+01 7.7370699999999999e+01
-7.7370699999999999e+01 7.7370699999999999e+01
ITEM: ATOMS id type x y z
1 1 -7.40497 -12.1114 -5.44418
2 2 -11.4563 -11.857 -7.46434
3 2 -8.95207 -14.2049 -10.1293
4 2 -6.69906 -14.4866 -14.0212
5 2 -6.34645 -14.5836 -18.539
6 2 -3.32637 -12.3574 -21.1427
7 2 -5.24288 -14.8387 -24.4353
8 2 -3.59623 -18.8514 -25.9213
9 2 -1.41933 -21.0888 -29.1122