LAMMPS (29 Aug 2024 - Update 1)
units           real
dimension       3
boundary        p p p
atom_style      full

read_data       PDMS_100.data
Reading data file ...
  orthogonal box = (-77.3707 -77.3707 -77.3707) to (77.3707 77.3707 77.3707)
  1 by 1 by 1 MPI processor grid
  reading atoms ...
  100 atoms
  scanning bonds ...
  1 = max bonds/atom
  orthogonal box = (-77.3707 -77.3707 -77.3707) to (77.3707 77.3707 77.3707)
  1 by 1 by 1 MPI processor grid
  reading bonds ...
  99 bonds
Finding 1-2 1-3 1-4 neighbors ...
  special bond factors lj:    0        0        0       
  special bond factors coul:  0        0        0       
     2 = max # of 1-2 neighbors
     2 = max # of 1-3 neighbors
     4 = max # of 1-4 neighbors
     6 = max # of special neighbors
  special bonds CPU = 0.000 seconds
  read_data CPU = 0.003 seconds


pair_style      none

bond_style      harmonic
bond_coeff      1 27.486 4.48
angle_style     none
dihedral_style  none

neigh_modify    one 100
neighbor        1 bin
neigh_modify    delay 0 every 1 check yes

minimize        1.0e-4 1.0e-6 1000 10000

CITE-CITE-CITE-CITE-CITE-CITE-CITE-CITE-CITE-CITE-CITE-CITE-CITE

Your simulation uses code contributions which should be cited:

- Type Label Framework: https://doi.org/10.1021/acs.jpcb.3c08419

@Article{Gissinger24,
 author = {Jacob R. Gissinger, Ilia Nikiforov, Yaser Afshar, Brendon Waters, Moon-ki Choi, Daniel S. Karls, Alexander Stukowski, Wonpil Im, Hendrik Heinz, Axel Kohlmeyer, and Ellad B. Tadmor},
 title = {Type Label Framework for Bonded Force Fields in LAMMPS},
 journal = {J. Phys. Chem. B},
 year =    2024,
 volume =  128,
 number =  13,
 pages =   {3282–-3297}
}

CITE-CITE-CITE-CITE-CITE-CITE-CITE-CITE-CITE-CITE-CITE-CITE-CITE

WARNING: No pairwise cutoff or binsize set. Atom sorting therefore disabled. (../atom.cpp:2442)
Per MPI rank memory allocation (min/avg/max) = 6.803 | 6.803 | 6.803 Mbytes
   Step          Temp          E_pair         E_mol          TotEng         Press     
         0   0              0              1.0884456      1.0884456     -3.0213604    
        22   0              0              8.4888087e-14  8.4888087e-14 -3.356893e-08 
Loop time of 0.000116479 on 1 procs for 22 steps with 100 atoms

19.7% CPU use with 1 MPI tasks x no OpenMP threads

Minimization stats:
  Stopping criterion = energy tolerance
  Energy initial, next-to-last, final = 
      1.08844558593275 3.16777662662526e-13 8.4888086960878e-14
  Force two-norm initial, final = 14.653306 3.363065e-06
  Force max component initial, final = 2.1944553 9.4034003e-07
  Final line search alpha, max atom move = 1 9.4034003e-07
  Iterations, force evaluations = 22 54

MPI task timing breakdown:
Section |  min time  |  avg time  |  max time  |%varavg| %total
---------------------------------------------------------------
Pair    | 0          | 0          | 0          |   0.0 |  0.00
Bond    | 5.11e-05   | 5.11e-05   | 5.11e-05   |   0.0 | 43.87
Neigh   | 0          | 0          | 0          |   0.0 |  0.00
Comm    | 3.79e-06   | 3.79e-06   | 3.79e-06   |   0.0 |  3.25
Output  | 0          | 0          | 0          |   0.0 |  0.00
Modify  | 0          | 0          | 0          |   0.0 |  0.00
Other   |            | 6.159e-05  |            |       | 52.88

Nlocal:            100 ave         100 max         100 min
Histogram: 1 0 0 0 0 0 0 0 0 0
Nghost:              0 ave           0 max           0 min
Histogram: 1 0 0 0 0 0 0 0 0 0
Neighs:              0 ave           0 max           0 min
Histogram: 1 0 0 0 0 0 0 0 0 0

Total # of neighbors = 0
Ave neighs/atom = 0
Ave special neighs/atom = 5.88
Neighbor list builds = 0
Dangerous builds = 0

fix             equil all nvt temp 300.0 300.0 100.0
timestep        10
thermo_style    one
thermo          10000
run             50000
Per MPI rank memory allocation (min/avg/max) = 5.678 | 5.678 | 5.678 Mbytes
   Step          Temp          E_pair         E_mol          TotEng         Press     
        22   0              0              8.4888087e-14  8.4888087e-14 -3.356893e-08 
     10000   321.88271      0              24.553534      119.54119      0.89980116   
     20000   301.20411      0              23.520148      112.40554     -1.20663      
     30000   324.9947       0              25.217304      121.1233       0.35614862   
     40000   338.58102      0              29.382438      129.29776     -3.6379263    
     50000   338.23533      0              32.104392      131.9177      -2.6173362    
     50022   277.13283      0              26.927434      108.70938      0.6957379    
Loop time of 0.164271 on 1 procs for 50000 steps with 100 atoms

Performance: 262980.650 ns/day, 0.000 hours/ns, 304375.753 timesteps/s, 30.438 Matom-step/s
100.0% CPU use with 1 MPI tasks x no OpenMP threads

MPI task timing breakdown:
Section |  min time  |  avg time  |  max time  |%varavg| %total
---------------------------------------------------------------
Pair    | 0          | 0          | 0          |   0.0 |  0.00
Bond    | 0.042179   | 0.042179   | 0.042179   |   0.0 | 25.68
Neigh   | 0.010944   | 0.010944   | 0.010944   |   0.0 |  6.66
Comm    | 0.010271   | 0.010271   | 0.010271   |   0.0 |  6.25
Output  | 0.00018275 | 0.00018275 | 0.00018275 |   0.0 |  0.11
Modify  | 0.086534   | 0.086534   | 0.086534   |   0.0 | 52.68
Other   |            | 0.01416    |            |       |  8.62

Nlocal:            100 ave         100 max         100 min
Histogram: 1 0 0 0 0 0 0 0 0 0
Nghost:              0 ave           0 max           0 min
Histogram: 1 0 0 0 0 0 0 0 0 0
Neighs:              0 ave           0 max           0 min
Histogram: 1 0 0 0 0 0 0 0 0 0

Total # of neighbors = 0
Ave neighs/atom = 0
Ave special neighs/atom = 5.88
Neighbor list builds = 6250
Dangerous builds = 0
unfix           equil


fix             prod all nve
variable        d_end equal "sqrt((x[1]-x[100])^2 + (y[1]-y[100])^2 + (z[1]-z[100])^2)"
compute         rg all gyration
fix             avg all ave/time 2000000 800 2000000000 c_rg v_d_end file avg.txt

thermo_style    custom step temp pe ke etotal c_rg v_d_end
thermo          2000000

dump            traj all custom 2000000 dump.pdms.lammpstrj id type x y z

run             2000000000
Per MPI rank memory allocation (min/avg/max) = 5.678 | 5.678 | 5.678 Mbytes
   Step          Temp          PotEng         KinEng         TotEng          c_rg         v_d_end    
     50022   277.13283      26.927434      81.781951      108.70938      13.209069      23.480008    
   2000000   265.16943      30.562291      78.251551      108.81384      11.022179      21.454319    
   4000000   278.90592      26.457609      82.30519       108.7628       11.951864      9.5611701    
   6000000   280.76993      25.869667      82.85526       108.72493      10.858103      25.2515      
   8000000   283.99747      24.949893      83.80771       108.7576       13.990668      31.620492    
  10000000   286.18979      24.307991      84.454663      108.76265      16.627395      34.784419    
  12000000   278.1315       26.755031      82.07666       108.83169      12.369099      44.288622    
  14000000   260.7256       31.876693      76.940174      108.81687      15.585767      25.976192    
  16000000   265.35784      30.522987      78.307151      108.83014      13.025568      21.215612    
  18000000   283.0496       25.210181      83.527992      108.73817      13.906705      41.224911    
  20000000   258.67079      32.45966       76.3338        108.79346      13.213371      10.710318    
  22000000   276.15242      27.266913      81.492634      108.75955      13.678063      17.116185    
  24000000   267.46627      29.855457      78.929347      108.7848       21.08877       32.290735    
  26000000   289.75465      23.275271      85.506653      108.78192      25.353584      60.52529     
  28000000   282.09218      25.445017      83.245456      108.69047      12.823327      42.314384    
  30000000   268.9134       29.3749        79.356398      108.7313       10.687172      11.694022    
  32000000   274.70218      27.763092      81.064667      108.82776      21.093886      57.869315    
  34000000   293.32414      22.203325      86.560012      108.76334      18.255633      40.782269    
  36000000   290.83076      22.862561      85.824214      108.68677      18.010939      45.871593    
  38000000   275.94386      27.322989      81.431087      108.75408      19.029851      32.953574    
  40000000   272.72252      28.248498      80.480468      108.72897      12.899001      28.460846    
  42000000   283.58908      25.056985      83.687193      108.74418      11.449657      33.701088    
  44000000   284.38859      24.856646      83.923128      108.77977      17.289224      30.879137    
  46000000   286.81423      24.130833      84.638936      108.76977      19.289195      37.956101    
  48000000   265.99775      30.293578      78.495987      108.78956      12.601148      15.004545    
  50000000   279.35203      26.265162      82.436838      108.702        16.767269      42.365358    
  52000000   257.22352      32.922963      75.90671       108.82967      10.922804      13.406412    
  54000000   271.08503      28.803828      79.997246      108.80107      15.189276      41.555683    
  56000000   275.8791       27.391911      81.411976      108.80389      15.811513      10.82059     
  58000000   297.97691      20.818951      87.933044      108.75199      19.616644      61.484323    
  60000000   245.5897       36.355734      72.473568      108.8293       12.588365      22.097016    
  62000000   264.65564      30.737913      78.099932      108.83785      18.259136      46.481473    
  64000000   265.36227      30.455816      78.308458      108.76427      17.20074       36.2634      
  66000000   279.88289      26.167903      82.593497      108.7614       16.815428      42.359451    
  68000000   276.06791      27.343708      81.467693      108.8114       16.676557      33.656939    
  70000000   274.55526      27.708545      81.021311      108.72986      15.863834      32.805423    
  72000000   278.25742      26.596416      82.113818      108.71023      11.447541      24.853385    
  74000000   277.46201      26.887198      81.879094      108.76629      17.068462      22.036519    
  76000000   281.54465      25.690952      83.083882      108.77483      14.760865      36.392674    
  78000000   259.33351      32.299946      76.529369      108.82932      28.37332       69.582448    
  80000000   266.86473      30.090184      78.751834      108.84202      15.347765      31.61409     
  82000000   280.32804      26.072712      82.72486       108.79757      14.128094      26.101067    
  84000000   275.88269      27.367447      81.413035      108.78048      18.408722      38.538582    
  86000000   290.97592      22.877737      85.867051      108.74479      11.249231      11.302729    
  88000000   279.94933      26.096444      82.613101      108.70954      11.888255      32.837505    
  90000000   288.52697      23.651511      85.144365      108.79588      22.732406      67.000081    
  92000000   271.66837      28.541376      80.169389      108.71076      20.71791       35.101179    
  94000000   283.17184      25.185498      83.564064      108.74956      11.47661       25.815313    
  96000000   264.21253      30.832347      77.96917       108.80152      11.994198      22.020434    
  98000000   253.05171      34.166461      74.67561       108.84207      18.270017      40.528679    
 100000000   268.23636      29.623591      79.156602      108.78019      20.284458      44.001839    
 102000000   273.34266      28.122887      80.663472      108.78636      16.876971      28.792743    
 104000000   266.70041      30.07295       78.703344      108.77629      23.193376      51.06099     
 106000000   258.35414      32.557416      76.240357      108.79777      15.847403      33.81781     
 108000000   262.579        31.330102      77.487115      108.81722      22.816544      18.485092    
 110000000   267.73199      29.752738      79.007762      108.7605       14.058924      28.313872    
 112000000   273.0739       28.191375      80.584162      108.77554      14.415231      37.238105    
 114000000   281.68535      25.638574      83.125401      108.76398      12.002224      28.748184    
 116000000   265.44988      30.471651      78.33431       108.80596      17.061598      25.818094    
 118000000   281.939        25.571869      83.200254      108.77212      24.109764      48.180818    
 120000000   292.83239      22.372954      86.414896      108.78785      16.835444      12.67955     
 122000000   281.65848      25.625559      83.117473      108.74303      16.68897       13.853001    
 124000000   280.88851      25.849881      82.890253      108.74013      14.259797      38.57828     
 126000000   279.72008      26.215428      82.545451      108.76088      27.041427      77.655608    
 128000000   268.74261      29.529689      79.305998      108.83569      15.739717      44.813913    
 130000000   283.30228      25.212641      83.602557      108.8152       14.124042      14.130299    
 132000000   278.53781      26.510972      82.196561      108.70753      14.721124      31.913655    
 134000000   269.4639       29.325791      79.518849      108.84464      14.88291       47.788068    
 136000000   262.56978      31.320957      77.484392      108.80535      12.978563      26.773875    
 138000000   292.86187      22.354515      86.423595      108.77811      9.1086194      15.311135    
 140000000   301.71282      19.65975       89.035512      108.69526      12.669265      41.179424    
 142000000   278.77934      26.399431      82.267839      108.66727      20.398213      46.793905    
 144000000   271.54963      28.655443      80.134349      108.78979      18.530514      55.309554    
 146000000   249.10496      35.365838      73.510922      108.87676      14.803685      10.401808    
 148000000   284.02593      24.962556      83.816109      108.77866      22.600035      65.263207    
 150000000   266.71853      30.111678      78.708691      108.82037      12.952808      13.195898    
 152000000   294.67597      21.762432      86.958936      108.72137      20.348636      38.753422    
 154000000   270.61658      28.886338      79.859006      108.74534      16.745466      68.875374    
 156000000   282.73584      25.326079      83.435403      108.76148      14.04436       34.141341    
 158000000   245.73771      36.331217      72.517247      108.84846      27.927849      50.132457    
 160000000   282.70032      25.278163      83.42492       108.70308      15.454213      22.413617    
 162000000   270.47348      28.97778       79.816777      108.79456      11.418481      10.036093    
 164000000   256.13534      33.24411       75.585589      108.8297       19.40125       63.679599    
 166000000   266.07498      30.264506      78.518779      108.78328      18.798259      36.890983    
 168000000   268.60488      29.498547      79.265351      108.7639       14.783133      36.426927    
 170000000   273.35529      28.040145      80.667199      108.70734      17.659873      15.467703    
 172000000   277.57109      26.788126      81.911281      108.69941      15.001723      16.69024     
 174000000   265.22505      30.561844      78.267965      108.82981      9.982999       12.208247    
 176000000   263.60638      31.032445      77.790294      108.82274      25.578297      78.535125    
 178000000   297.24         20.974926      87.715583      108.69051      14.853402      32.912946    
 180000000   273.33826      28.058569      80.662174      108.72074      19.028937      45.637137    
 182000000   267.05438      30.010371      78.8078        108.81817      16.115997      52.635789    
 184000000   266.06392      30.258867      78.515514      108.77438      23.23795       57.664574    
 186000000   279.93668      26.104539      82.609368      108.71391      11.999053      32.955296    
 188000000   286.49952      24.288916      84.546065      108.83498      29.199312      80.532743    
 190000000   264.81748      30.558792      78.147691      108.70648      12.344702      27.490315    
 192000000   279.97717      26.119517      82.621317      108.74083      14.557848      27.891667    
 194000000   274.73162      27.690745      81.073353      108.7641       11.902101      28.498504    
 196000000   262.82424      31.276999      77.559485      108.83648      11.587607      26.535991    
 198000000   277.10936      26.964613      81.775027      108.73964      15.539369      39.820856    
 200000000   258.1894       32.665153      76.191741      108.85689      16.395332      37.697629    
 202000000   307.94738      17.793519      90.875331      108.66885      15.2094        16.393029    
 204000000   288.00529      23.738535      84.990417      108.72895      11.954155      30.223145    
 206000000   288.40648      23.640607      85.108809      108.74942      11.155444      14.932352    
 208000000   262.70053      31.230289      77.522978      108.75327      12.169096      36.418594    
 210000000   279.53736      26.291322      82.491529      108.78285      15.248628      47.431218    
 212000000   269.13763      29.277067      79.422566      108.69963      17.375404      38.647118    
 214000000   266.01768      30.254714      78.501868      108.75658      17.098703      57.18014     
 216000000   285.1566       24.530647      84.149769      108.68042      9.322113       17.751864    
 218000000   273.10488      28.162274      80.593303      108.75558      12.115517      27.762774    
 220000000   287.07286      24.03275       84.715258      108.74801      21.304921      35.449777    
 222000000   269.92908      29.138417      79.656125      108.79454      17.876617      41.99248     
 224000000   257.1309       32.945887      75.879378      108.82526      20.234763      62.979425    
 226000000   277.53806      26.840921      81.901535      108.74246      18.863808      51.495987    
 228000000   271.98003      28.464254      80.261359      108.72561      11.752157      23.375038    
 230000000   268.18463      29.583458      79.141336      108.72479      12.149536      19.271664    
 232000000   270.83602      28.852786      79.923761      108.77655      18.894836      40.232457    
 234000000   279.53233      26.251216      82.490046      108.74126      9.0764774      11.500696    
 236000000   266.19578      30.29463       78.554425      108.84906      14.108956      33.32822     
 238000000   278.29955      26.568111      82.126253      108.69436      9.2181308      7.5618161    
 240000000   271.89967      28.567289      80.237645      108.80493      18.764616      46.645923    
 242000000   271.20394      28.776913      80.032335      108.80925      14.977807      34.139001    
 244000000   281.57366      25.635925      83.09244       108.72837      17.275802      30.699909    
 246000000   260.21979      31.972779      76.790911      108.76369      10.388391      20.147607    
 248000000   256.45116      33.127178      75.678786      108.80596      16.798919      39.764743    
 250000000   279.87593      26.200936      82.591442      108.79238      13.407512      36.332857    
 252000000   270.89029      28.831268      79.939777      108.77104      13.818346      21.392454    
 254000000   271.07476      28.752355      79.994213      108.74657      21.451995      58.509325    
 256000000   273.85582      27.973651      80.814906      108.78856      16.117335      41.539559    
 258000000   237.60102      38.749374      70.116109      108.86548      12.945007      38.057322    
 260000000   285.50617      24.48981       84.252927      108.74274      15.338572      38.95041     
 262000000   264.58769      30.752312      78.079879      108.83219      17.666952      57.447704    
 264000000   281.32348      25.714984      83.018614      108.7336       21.567962      23.816457    
 266000000   268.13371      29.639303      79.126311      108.76561      16.517998      29.988045    
 268000000   295.22584      21.622539      87.121203      108.74374      11.359007      33.173119    
 270000000   263.31137      31.143763      77.703237      108.847        11.698781      19.785571    
 272000000   275.3467       27.441618      81.254866      108.69648      15.005128      40.468878    
 274000000   279.82355      26.096393      82.575985      108.67238      11.381835      21.541479    
 276000000   281.59832      25.666069      83.099719      108.76579      19.246313      53.680951    
 278000000   286.75229      24.039072      84.620658      108.65973      12.30811       18.888261    
 280000000   271.72951      28.60195       80.18743       108.78938      16.212198      19.479876    
 282000000   281.52391      25.620352      83.077761      108.69811      17.003125      37.062246    
 284000000   279.32818      26.334389      82.4298        108.76419      17.941296      55.613715    
 286000000   264.08916      30.870328      77.932761      108.80309      8.3028042      4.1505457    
 288000000   272.56108      28.39073       80.432827      108.82356      11.12221       15.738348    
 290000000   299.80546      20.202629      88.47265       108.67528      12.51043       16.441613    
 292000000   269.56232      29.236054      79.547893      108.78395      21.150359      69.866875    
 294000000   251.45581      34.633024      74.204659      108.83768      9.9867497      20.621816    
 296000000   290.3987       23.077833      85.696714      108.77455      15.579554      18.081356    
 298000000   241.29657      37.663678      71.206666      108.87034      20.353674      62.22523     
 300000000   275.77836      27.347719      81.382247      108.72997      15.146669      15.104483    
 302000000   271.99595      28.530713      80.266059      108.79677      11.985522      14.33853     
 304000000   277.46809      26.866693      81.880886      108.74758      14.175049      37.009662    
 306000000   271.95952      28.532839      80.255308      108.78815      11.554311      14.783347    
 308000000   255.76365      33.350187      75.475904      108.82609      24.967331      81.081334    
 310000000   285.57212      24.462888      84.272389      108.73528      15.650604      37.212994    
 312000000   277.76688      26.769499      81.969059      108.73856      16.253338      44.054459    
 314000000   265.69345      30.400789      78.40619       108.80698      12.500246      22.307503    
 316000000   265.5406       30.326186      78.361082      108.68727      15.292121      26.338716    
 318000000   280.64658      25.916028      82.81886       108.73489      20.090861      39.447645    
 320000000   288.23959      23.713636      85.05956       108.7732       25.110466      58.108609    
 322000000   288.66471      23.55097       85.185013      108.73598      10.444653      16.625704    
 324000000   289.69764      23.307209      85.48983       108.79704      13.69578       32.139609    
 326000000   289.274        23.36194       85.364815      108.72675      10.574424      1.3835949    
 328000000   282.47176      25.367167      83.357472      108.72464      14.38145       38.487405    
 330000000   282.94583      25.233709      83.497371      108.73108      15.103152      40.536816    
 332000000   283.08745      25.180407      83.539161      108.71957      16.285865      25.175682    
 334000000   270.69745      28.896691      79.882871      108.77956      14.931181      59.329072    
 336000000   256.00568      33.258604      75.547326      108.80593      13.410488      25.835167    
 338000000   291.34239      22.719878      85.975197      108.69507      15.174332      29.451975    
 340000000   284.07381      24.947593      83.830238      108.77783      19.022934      49.340784    
 342000000   291.57481      22.63624       86.043782      108.68002      23.325615      63.530043    
 344000000   273.77635      27.941296      80.791453      108.73275      14.795697      34.655747    
 346000000   277.7915       26.825333      81.976326      108.80166      20.860509      46.626691    
 348000000   265.87974      30.278989      78.461164      108.74015      11.867387      29.347137    
 350000000   271.57011      28.637422      80.140392      108.77781      17.293209      45.847179    
 352000000   274.03547      27.962568      80.867921      108.83049      16.655091      45.43179     
 354000000   273.11047      28.195613      80.594954      108.79057      15.261814      33.935471    
 356000000   277.9814       26.686741      82.032366      108.71911      11.88016       22.957128    
 358000000   289.67695      23.252955      85.483724      108.73668      13.170748      35.182619    
 360000000   264.27584      30.743752      77.987852      108.7316       8.6918418      19.187199    
 362000000   283.3003       25.196378      83.601974      108.79835      17.281356      31.134249    
 364000000   271.30758      28.714256      80.06292       108.77718      14.937435      25.932632    
 366000000   272.31425      28.394253      80.359988      108.75424      9.4923924      16.829822    
 368000000   262.90575      31.219004      77.583538      108.80254      8.3681756      18.869944    
 370000000   278.10331      26.741839      82.068341      108.81018      18.513457      51.717824    
 372000000   277.5202       26.817714      81.896265      108.71398      20.961225      24.83253     
 374000000   281.15679      25.756253      82.969424      108.72568      21.496188      56.941673    
 376000000   283.69321      25.053229      83.717923      108.77115      14.392114      41.557438    
 378000000   278.03396      26.68875       82.047877      108.73663      12.137469      22.263167    
 380000000   287.85438      23.80543       84.945883      108.75131      14.833681      18.604251    
 382000000   295.4112       21.546411      87.175903      108.72231      11.547165      13.368565    
 384000000   277.95552      26.68324       82.024727      108.70797      15.791072      43.535442    
 386000000   266.15837      30.201814      78.543387      108.7452       13.234934      26.589766    
 388000000   265.55975      30.458903      78.366734      108.82564      9.6780035      34.456979    
 390000000   281.73507      25.580856      83.140073      108.72093      16.275912      43.219852    
 392000000   300.58712      19.943295      88.703318      108.64661      14.312792      39.309007    
 394000000   295.01189      21.62913       87.058065      108.68719      20.98981       49.08151     
 396000000   286.51038      24.199735      84.549268      108.749        11.38084       28.524843    
 398000000   278.81781      26.370014      82.27919       108.6492       13.902444      40.140176    
 400000000   295.81904      21.389663      87.296257      108.68592      14.941973      31.364937    
 402000000   293.12657      22.202876      86.501708      108.70458      10.712929      28.796904    
 404000000   297.74725      20.825906      87.865272      108.69118      13.55092       40.699573    
 406000000   276.29695      27.243386      81.535283      108.77867      10.428627      26.866699    
 408000000   265.12702      30.471923      78.239037      108.71096      19.601897      32.190148    
 410000000   266.028        30.329292      78.504915      108.83421      14.221292      30.212399    
 412000000   266.22843      30.163894      78.564062      108.72796      13.11585       20.610235    
 414000000   273.24468      28.119092      80.634557      108.75365      17.549374      35.120147    
 416000000   276.66936      27.070371      81.645183      108.71555      17.244655      45.617932    
 418000000   290.08674      23.110341      85.604652      108.71499      15.7072        36.482992    
 420000000   273.87967      27.934916      80.821943      108.75686      18.569404      36.821671    
 422000000   275.70314      27.393653      81.360051      108.7537       15.938118      29.018544    
 424000000   277.14449      27.008678      81.785392      108.79407      16.845132      43.887595    
 426000000   271.42226      28.659422      80.096762      108.75618      19.07563       51.676757    
 428000000   286.77729      24.082956      84.628033      108.71099      18.741749      26.285655    
 430000000   281.91909      25.608722      83.194378      108.8031       29.044074      88.088599    
 432000000   278.2647       26.639084      82.115968      108.75505      12.717709      20.41882     
 434000000   251.78744      34.543655      74.302524      108.84618      13.337537      29.140145    
 436000000   266.69398      30.052844      78.701446      108.75429      14.835556      36.842893    
 438000000   284.99042      24.645327      84.100727      108.74605      30.061637      44.268803    
 440000000   270.13949      29.02389       79.718216      108.74211      15.873852      22.987913    
 442000000   275.94375      27.337267      81.431055      108.76832      14.015023      32.136155    
 444000000   247.95976      35.64857       73.172974      108.82154      16.240904      39.060876    
 446000000   259.04334      32.418898      76.44374       108.86264      18.004413      41.586041    
 448000000   281.25299      25.780375      82.997813      108.77819      16.527966      33.034126    
 450000000   274.7298       27.73323       81.072817      108.80605      15.969757      34.409803    
 452000000   274.5225       27.688497      81.011643      108.70014      11.34472       17.916034    
 454000000   289.92872      23.233632      85.558021      108.79165      14.838125      40.567841    
 456000000   275.13126      27.548139      81.191289      108.73943      20.754733      36.472445    
 458000000   283.53268      25.113606      83.670549      108.78415      13.13507       30.965632    
 460000000   265.98823      30.350463      78.49318       108.84364      16.798323      28.320112    
 462000000   271.26559      28.686875      80.050529      108.7374       13.213143      42.087283    
 464000000   265.73338      30.324679      78.417973      108.74265      19.242338      40.392665    
 466000000   275.52508      27.365293      81.307504      108.6728       10.710838      27.617359    
 468000000   273.01093      28.248994      80.565579      108.81457      19.920484      60.160428    
 470000000   269.17719      29.32116       79.434242      108.7554       29.819803      66.895385    
 472000000   293.35014      22.189916      86.567684      108.7576       24.877345      46.124324    
 474000000   274.00867      27.951021      80.860013      108.81103      16.098778      12.92827     
 476000000   266.91362      29.934797      78.766262      108.70106      13.013966      33.876234    
 478000000   269.37454      29.33385       79.49248       108.82633      16.576333      41.043225    
 480000000   265.98236      30.262696      78.491446      108.75414      11.822257      35.294762    
 482000000   262.02683      31.526911      77.324169      108.85108      14.838339      19.792891    
 484000000   251.33395      34.688728      74.168699      108.85743      15.833365      20.275041    
 486000000   266.78648      30.050219      78.728743      108.77896      12.353462      28.414516    
 488000000   257.55568      32.829061      76.004732      108.83379      18.890492      66.367274    
 490000000   272.5288       28.350078      80.423303      108.77338      18.792301      40.8047      
 492000000   289.43813      23.326159      85.413249      108.73941      21.104607      51.815591    
 494000000   297.263        20.968135      87.722369      108.6905       20.500849      40.136515    
 496000000   292.76215      22.320943      86.394167      108.71511      18.60585       46.81103     
 498000000   283.63997      25.015478      83.702211      108.71769      21.203556      64.292692    
 500000000   281.73243      25.659195      83.139295      108.79849      13.025383      11.249248    
 502000000   300.25139      20.134552      88.604243      108.73879      12.141418      24.434354    
 504000000   270.84708      28.845599      79.927025      108.77262      10.067875      18.168202    
 506000000   294.89168      21.7145        87.022594      108.73709      13.644104      40.601024    
 508000000   260.93199      31.832023      77.001081      108.8331       15.166203      34.581933    
 510000000   262.39307      31.409051      77.432245      108.8413       15.126973      45.618822    
 512000000   271.7363       28.594845      80.189434      108.78428      17.516991      25.385225    
 514000000   257.74937      32.764282      76.06189       108.82617      15.685435      36.037168    
 516000000   285.7898       24.444522      84.336625      108.78115      11.286706      13.73761     
 518000000   273.68589      28.039748      80.76476       108.80451      13.074618      35.239923    
 520000000   270.06977      29.097628      79.697641      108.79527      11.352923      27.617179    
 522000000   274.90646      27.677995      81.124951      108.80295      16.738114      52.729277    
 524000000   269.15853      29.378556      79.428734      108.80729      20.776432      53.590552    
 526000000   269.60956      29.163118      79.561834      108.72495      18.862434      52.913281    
 528000000   275.77536      27.426881      81.381362      108.80824      18.674479      50.971181    
 530000000   266.6809       30.159295      78.697587      108.85688      9.4178621      16.449056    
 532000000   269.37942      29.235493      79.49392       108.72941      12.486977      30.231353    
 534000000   290.97834      22.805957      85.867766      108.67372      22.571408      62.328338    
 536000000   279.33666      26.295786      82.432302      108.72809      15.710029      48.585436    
 538000000   252.6082       34.266109      74.544731      108.81084      17.865361      49.018751    
 540000000   261.92347      31.554998      77.293667      108.84866      22.807058      68.971123    
 542000000   299.61197      20.33839       88.415551      108.75394      15.937187      17.544314    
 544000000   252.05974      34.420912      74.382879      108.80379      13.893888      55.812671    
 546000000   271.33637      28.717274      80.071417      108.78869      15.20147       38.407972    
 548000000   284.38815      24.816924      83.922997      108.73992      11.947491      18.291553    
 550000000   293.68327      22.065317      86.665989      108.73131      14.136837      29.542374    
 552000000   266.22922      30.188979      78.564294      108.75327      15.518262      44.407053    
 554000000   289.67023      23.323011      85.481742      108.80475      11.255103      13.439627    
 556000000   261.24379      31.682157      77.093093      108.77525      15.790454      47.252427    
 558000000   262.55871      31.265937      77.481127      108.74706      17.393536      28.12334     
 560000000   271.36263      28.660499      80.079165      108.73966      12.941968      44.301397    
 562000000   262.95623      31.174993      77.598435      108.77343      16.647224      43.34352     
 564000000   267.35502      29.901284      78.896518      108.7978       16.069284      40.551309    
 566000000   282.55076      25.323276      83.380785      108.70406      12.226218      17.306156    
 568000000   259.99141      32.06271       76.723515      108.78622      12.058564      31.814831    
 570000000   274.18396      27.860458      80.911739      108.7722       13.123014      12.710152    
 572000000   290.84678      22.88256       85.828942      108.7115       14.318436      28.007331    
 574000000   273.15813      28.139165      80.609017      108.74818      14.400807      31.267598    
 576000000   269.11546      29.389839      79.416026      108.80587      17.300123      50.089838    
 578000000   276.52756      27.125041      81.603336      108.72838      19.274135      52.518724    
 580000000   276.38385      27.259636      81.560929      108.82057      12.788963      37.494283    
 582000000   259.19675      32.300291      76.48901       108.7893       14.534333      22.648691    
 584000000   274.28515      27.838162      80.941602      108.77976      24.42399       72.581414    
 586000000   286.32341      24.218433      84.494095      108.71253      15.443019      43.31049     
 588000000   253.08874      34.129486      74.686538      108.81602      10.41942       19.851655    
 590000000   283.34615      25.17797       83.615505      108.79348      10.107075      11.282575    
 592000000   259.10273      32.371568      76.461266      108.83283      11.965629      13.242494    
 594000000   268.98238      29.371164      79.376753      108.74792      12.945622      18.731649    
 596000000   278.07344      26.629663      82.059527      108.68919      14.842256      24.271049    
 598000000   297.36386      21.012564      87.752134      108.7647       10.671354      9.2443052    
 600000000   280.64353      25.943498      82.817961      108.76146      13.053268      13.237978    
 602000000   279.31508      26.225007      82.425933      108.65094      12.179892      57.20806     
 604000000   278.58112      26.555554      82.209342      108.7649       16.686787      40.117264    
 606000000   276.85044      27.055373      81.698618      108.75399      15.462486      32.540677    
 608000000   263.39062      31.056362      77.726622      108.78298      14.682622      33.265703    
 610000000   252.02192      34.495102      74.371718      108.86682      15.161124      33.5728      
 612000000   261.72902      31.579576      77.236285      108.81586      10.038507      8.477205     
 614000000   270.24019      29.057174      79.747934      108.80511      11.378725      20.426721    
 616000000   278.27568      26.611569      82.119207      108.73078      14.189096      38.250612    
 618000000   285.83027      24.439476      84.348568      108.78804      14.437442      25.739917    
 620000000   282.43695      25.40681       83.347198      108.75401      14.231481      11.672277    
 622000000   254.04485      33.850533      74.968684      108.81922      15.302807      34.886248    
 624000000   272.68991      28.267034      80.470844      108.73788      11.553352      32.243073    
 626000000   285.86375      24.339639      84.358449      108.69809      11.430223      40.736841    
 628000000   278.73283      26.490289      82.254111      108.7444       14.879978      31.877053    
 630000000   275.76809      27.392706      81.379218      108.77192      15.382978      33.677438    
 632000000   263.11926      31.127595      77.646544      108.77414      12.631535      39.67069     
 634000000   266.29097      30.315591      78.582517      108.89811      11.492978      27.338789    
 636000000   264.8114       30.729356      78.145895      108.87525      17.299835      40.425392    
 638000000   261.89992      31.527814      77.286717      108.81453      13.725377      13.723362    
 640000000   274.27059      27.902453      80.937303      108.83976      11.664667      28.381285    
 642000000   293.1005       22.262442      86.494014      108.75646      14.115809      48.372571    
 644000000   293.32682      22.19179       86.560802      108.75259      29.703699      84.253677    
 646000000   281.3152       25.783964      83.01617       108.80013      14.333096      39.973255    
 648000000   284.8988       24.620221      84.07369       108.69391      11.067501      33.756458    
 650000000   257.49354      32.873013      75.986394      108.85941      12.193034      24.058854    
 652000000   269.54598      29.245201      79.543073      108.78827      13.003248      16.096128    
 654000000   267.79088      29.774732      79.02514       108.79987      21.819409      54.730005    
 656000000   284.7437       24.748023      84.027922      108.77594      15.870816      38.220409    
 658000000   291.37236      22.745538      85.984039      108.72958      8.4175897      7.9054128    
 660000000   287.1693       23.981481      84.743717      108.7252       13.200927      33.664442    
 662000000   272.44114      28.401245      80.397434      108.79868      12.914071      17.907886    
 664000000   281.38023      25.655704      83.035362      108.69107      12.227817      31.865982    
 666000000   286.58047      24.149505      84.569951      108.71946      11.943496      26.873124    
 668000000   256.23295      33.205438      75.614395      108.81983      16.491764      23.300716    
 670000000   273.77497      27.983986      80.791048      108.77503      19.714689      29.655274    
 672000000   263.80267      30.972468      77.84822       108.82069      21.801703      45.56915     
 674000000   250.59886      34.821903      73.951772      108.77368      20.249691      53.857646    
 676000000   278.92596      26.477836      82.311105      108.78894      10.301241      17.122591    
 678000000   272.76224      28.242319      80.49219       108.73451      10.928454      20.446084    
 680000000   272.60351      28.323482      80.445348      108.76883      20.103275      52.619356    
 682000000   281.0672       25.834583      82.942985      108.77757      15.543389      41.878411    
 684000000   273.89913      27.944197      80.827686      108.77188      14.75121       38.939462    
 686000000   266.23726      30.243028      78.566668      108.8097       12.543421      45.789105    
 688000000   270.74798      28.904925      79.897782      108.80271      19.111467      36.395733    
 690000000   282.76166      25.325128      83.443021      108.76815      21.908664      46.10356     
 692000000   261.25951      31.672395      77.097731      108.77013      18.772409      53.680806    
 694000000   285.72656      24.435234      84.317964      108.7532       11.52533       18.548268    
 696000000   273.77054      27.933877      80.78974       108.72362      20.439046      41.017034    
 698000000   264.10045      30.862353      77.936094      108.79845      19.745732      56.148209    
 700000000   269.36381      29.272682      79.489312      108.76199      18.047543      26.701171    
 702000000   265.83821      30.375395      78.448909      108.8243       15.925053      42.604468    
 704000000   272.16193      28.434532      80.315039      108.74957      13.194925      29.875199    
 706000000   277.32745      26.882609      81.839384      108.72199      17.744333      31.802832    
 708000000   261.93855      31.458889      77.298117      108.75701      10.171731      17.467166    
 710000000   279.37105      26.31146       82.44245       108.75391      14.944431      46.99586     
 712000000   282.40574      25.451774      83.337989      108.78976      13.443752      43.858455    
 714000000   274.96996      27.605462      81.143687      108.74915      15.895338      46.239657    
 716000000   255.07059      33.540243      75.271379      108.81162      13.680901      24.1677      
 718000000   269.37874      29.247155      79.493717      108.74087      9.953206       14.411192    
 720000000   261.2871       31.6384        77.105875      108.74427      10.169272      18.447936    
 722000000   279.73337      26.189543      82.549371      108.73891      24.297544      66.349766    
 724000000   248.46154      35.500036      73.321049      108.82108      12.424643      25.631016    
 726000000   286.95287      24.100365      84.679848      108.78021      17.426223      31.199328    
 728000000   282.9354       25.276277      83.494292      108.77057      16.144048      29.240253    
 730000000   266.78409      30.061058      78.728036      108.78909      19.212283      37.465426    
 732000000   272.74965      28.284804      80.488475      108.77328      16.938007      33.294044    
 734000000   282.1117       25.512186      83.251217      108.7634       9.8803769      15.601145    
 736000000   271.58953      28.58813       80.146124      108.73425      19.453312      67.607804    
 738000000   261.61327      31.663881      77.202128      108.86601      11.104817      20.36676     
 740000000   254.59642      33.687991      75.131453      108.81944      20.235499      65.789795    
 742000000   266.19591      30.249149      78.554466      108.80361      18.041605      36.769574    
 744000000   288.61875      23.548391      85.171451      108.71984      19.875978      43.472063    
 746000000   278.36515      26.626811      82.14561       108.77242      19.466278      47.714597    
 748000000   275.81192      27.368625      81.392152      108.76078      11.264659      41.932775    
 750000000   278.16876      26.669678      82.087656      108.75733      17.794178      20.842107    
 752000000   270.01534      29.114665      79.681579      108.79624      9.2978426      31.197286    
 754000000   276.43516      27.228021      81.57607       108.80409      11.541874      43.207208    
 756000000   275.3931       27.457405      81.268557      108.72596      13.539713      11.296585    
 758000000   276.10639      27.274095      81.479049      108.75314      19.654204      58.062002    
 760000000   283.85275      24.963599      83.765002      108.7286       14.739004      36.854018    
 762000000   282.83598      25.195837      83.464953      108.66079      19.107007      35.216621    
 764000000   277.82795      26.763266      81.987081      108.75035      16.506632      37.067464    
 766000000   268.23114      29.6909        79.155062      108.84596      12.507082      18.25381     
 768000000   280.26594      26.064187      82.706533      108.77072      10.519897      33.329994    
 770000000   275.39207      27.518463      81.268255      108.78672      23.373789      28.106201    
 772000000   278.46265      26.577099      82.174384      108.75148      15.062823      36.020165    
 774000000   252.59168      34.268354      74.539854      108.80821      21.395668      45.857847    
 776000000   260.45769      31.931551      76.861116      108.79267      14.256961      44.583652    
 778000000   292.011        22.550036      86.172502      108.72254      17.236947      44.874691    
 780000000   281.06691      25.793127      82.9429        108.73603      16.200807      44.545375    
 782000000   251.08085      34.715601      74.094007      108.80961      16.024093      41.855459    
 784000000   278.715        26.510049      82.248852      108.7589       15.79606       42.38527     
 786000000   267.28713      29.97143       78.876485      108.84791      16.37761       27.21974     
 788000000   277.23405      26.977615      81.811822      108.78944      15.278837      27.100918    
 790000000   271.64864      28.625651      80.163567      108.78922      18.912681      41.480171    
 792000000   288.93576      23.495315      85.265         108.76031      15.368267      34.90174     
 794000000   287.3491       23.887622      84.796774      108.6844       12.609534      24.595766    
 796000000   290.1401       23.126255      85.620399      108.74665      16.561017      39.911317    
 798000000   272.02705      28.421731      80.275237      108.69697      8.6653565      17.922926    
 800000000   251.26427      34.656297      74.148134      108.80443      13.686628      28.648474    
 802000000   270.71785      28.851795      79.88889       108.74068      13.733664      39.641031    
 804000000   272.29043      28.406834      80.352958      108.75979      14.297141      32.070001    
 806000000   277.76421      26.817967      81.968273      108.78624      11.847692      22.438572    
 808000000   281.12662      25.828957      82.960521      108.78948      15.566427      56.489765    
 810000000   281.06475      25.820898      82.942261      108.76316      12.423905      26.200916    
 812000000   269.74944      29.185481      79.603112      108.78859      12.854689      16.003029    
 814000000   277.53996      26.817535      81.902096      108.71963      33.232541      93.221194    
 816000000   281.05931      25.839319      82.940658      108.77998      22.642603      57.718939    
 818000000   269.12146      29.32255       79.417794      108.74034      11.254866      27.754126    
 820000000   250.50535      34.887368      73.924178      108.81155      15.39592       28.442393    
 822000000   270.25927      28.984487      79.753563      108.73805      13.119651      22.044119    
 824000000   257.43281      32.836193      75.968473      108.80467      18.704789      60.300004    
 826000000   267.41093      29.900193      78.913017      108.81321      20.157033      50.962135    
 828000000   278.07558      26.772548      82.060159      108.83271      11.761219      16.042523    
 830000000   264.47219      30.807687      78.045794      108.85348      12.119665      15.938598    
 832000000   274.36779      27.754758      80.965988      108.72075      17.426315      40.421639    
 834000000   275.50836      27.448109      81.302572      108.75068      12.235113      19.505868    
 836000000   286.68135      24.107401      84.599722      108.70712      14.563715      30.16769     
 838000000   286.18716      24.297471      84.453887      108.75136      18.504845      49.913741    
 840000000   276.4059       27.209011      81.567435      108.77645      16.976855      29.547093    
 842000000   282.11717      25.514207      83.252832      108.76704      12.021068      39.478592    
 844000000   282.69811      25.360701      83.424267      108.78497      13.665781      25.279474    
 846000000   282.20397      25.439052      83.278447      108.7175       12.350813      26.635566    
 848000000   289.34699      23.361872      85.386352      108.74822      13.805947      33.956112    
 850000000   263.21644      31.077092      77.675223      108.75232      12.796053      42.244428    
 852000000   279.33535      26.282197      82.431915      108.71411      12.432414      36.571928    
 854000000   271.06592      28.811804      79.991604      108.80341      13.866285      39.860843    
 856000000   250.53553      34.907302      73.933085      108.84039      11.806534      20.518516    
 858000000   279.32944      26.320872      82.430173      108.75104      16.018359      30.547776    
 860000000   291.16157      22.798591      85.921837      108.72043      15.278597      35.943246    
 862000000   261.96576      31.446707      77.306148      108.75285      10.880304      22.848782    
 864000000   286.30337      24.334611      84.488181      108.82279      10.762132      16.892353    
 866000000   241.30602      37.634926      71.209453      108.84438      15.90993       28.79142     
 868000000   265.65372      30.39251       78.394465      108.78697      19.567284      42.342726    
 870000000   262.70834      31.251292      77.525281      108.77657      13.255184      38.000879    
 872000000   290.70907      22.943446      85.788303      108.73175      16.399467      29.563453    
 874000000   268.95941      29.370921      79.369975      108.7409       20.511406      30.512155    
 876000000   278.69155      26.526116      82.24193       108.76805      14.947991      26.198317    
 878000000   267.52472      29.824531      78.946598      108.77113      16.252442      34.085509    
 880000000   305.60016      18.517668      90.182667      108.70033      14.787687      24.336644    
 882000000   274.21037      27.868079      80.919535      108.78761      18.998445      50.583071    
 884000000   283.47249      25.11305       83.652786      108.76584      15.294816      32.353984    
 886000000   261.45871      31.616998      77.156515      108.77351      12.251553      27.146797    
 888000000   294.59187      21.810283      86.934119      108.7444       17.842096      45.33508     
 890000000   274.93693      27.62594       81.133941      108.75988      14.027569      32.685803    
 892000000   286.84862      24.07675       84.649085      108.72583      20.206681      55.017053    
 894000000   291.59199      22.601469      86.048853      108.65032      10.766511      34.582174    
 896000000   260.55428      31.872608      76.88962       108.76223      16.306478      54.154004    
 898000000   274.94734      27.719905      81.137013      108.85692      12.315221      47.062877    
 900000000   266.17204      30.258916      78.547421      108.80634      13.483568      42.536059    
 902000000   270.48958      29.004532      79.821528      108.82606      10.319799      23.039472    
 904000000   282.95561      25.262644      83.500256      108.7629       13.551445      9.3726119    
 906000000   277.31594      26.940395      81.835987      108.77638      21.743056      67.911703    
 908000000   279.46275      26.290446      82.469511      108.75996      18.61263       15.238325    
 910000000   292.01742      22.525998      86.174398      108.7004       15.888377      37.546796    
 912000000   283.27738      25.208798      83.595211      108.80401      17.581971      12.114253    
 914000000   256.75357      33.085565      75.768029      108.85359      14.040273      44.1242      
 916000000   271.61138      28.609094      80.152572      108.76167      26.409323      59.800261    
 918000000   262.11811      31.473048      77.351107      108.82415      14.961578      37.009513    
 920000000   266.27553      30.129854      78.57796       108.70781      12.561934      21.529887    
 922000000   254.84475      33.612731      75.204736      108.81747      15.233425      38.440733    
 924000000   273.2648       28.104959      80.640496      108.74546      15.043668      38.375196    
 926000000   267.21073      29.89218       78.853939      108.74612      13.339511      42.928641    
 928000000   263.42409      31.094273      77.736501      108.83077      11.928946      22.867602    
 930000000   267.39211      29.86948       78.907464      108.77694      18.224538      37.553849    
 932000000   289.32059      23.386357      85.378562      108.76492      12.636009      20.859855    
 934000000   276.51909      27.14387       81.600836      108.74471      14.013525      35.70851     
 936000000   290.03255      23.20492       85.588663      108.79358      13.451203      30.264965    
 938000000   253.67888      33.95363       74.860686      108.81432      15.010267      36.116779    
 940000000   263.81168      30.940745      77.850879      108.79162      12.826241      11.583258    
 942000000   283.74099      25.001354      83.732023      108.73338      14.130305      46.432976    
 944000000   261.14484      31.710958      77.063895      108.77485      17.202856      31.592961    
 946000000   268.66365      29.548337      79.282694      108.83103      20.056465      62.060052    
 948000000   268.71045      29.507314      79.296507      108.80382      12.207166      15.448274    
 950000000   264.82904      30.600491      78.151103      108.75159      11.347247      19.158276    
 952000000   267.97902      29.765992      79.080661      108.84665      18.974436      57.895425    
 954000000   262.48808      31.369335      77.460283      108.82962      11.130644      21.634818    
 956000000   272.48583      28.358647      80.410621      108.76927      19.859321      36.152931    
 958000000   281.67336      25.634745      83.121863      108.75661      12.05169       8.3372109    
 960000000   281.02199      25.850245      82.929645      108.77989      16.414503      44.719069    
 962000000   273.78346      28.001463      80.793552      108.79502      16.741568      32.382233    
 964000000   292.02807      22.520267      86.17754       108.69781      12.996666      33.679519    
 966000000   271.80592      28.534142      80.20998       108.74412      15.263491      28.201827    
 968000000   281.75785      25.572244      83.146797      108.71904      17.027571      44.836234    
 970000000   275.29751      27.529173      81.240349      108.76952      11.668484      22.735514    
 972000000   285.11054      24.622492      84.136175      108.75867      16.748689      30.548223    
 974000000   271.86251      28.50713       80.226681      108.73381      15.458935      27.521223    
 976000000   273.16084      28.207539      80.609816      108.81736      12.209494      7.3053879    
 978000000   286.5346       24.161128      84.556415      108.71754      17.719802      39.9035      
 980000000   290.96347      22.812336      85.863377      108.67571      16.93453       34.715043    
 982000000   258.34256      32.549959      76.236941      108.7869       12.729489      33.589398    
 984000000   272.67338      28.322626      80.465967      108.78859      14.070098      40.660253    
 986000000   295.75929      21.445662      87.278624      108.72429      19.878462      44.027682    
 988000000   257.96629      32.719079      76.125901      108.84498      21.899796      54.848545    
 990000000   273.17933      28.155541      80.615273      108.77081      20.739198      49.733916    
 992000000   287.88441      23.809221      84.954746      108.76397      17.086874      22.083593    
 994000000   262.93363      31.218121      77.591767      108.80989      15.888639      46.553083    
 996000000   287.86214      23.809456      84.948173      108.75763      14.668951      38.01784     
 998000000   298.33365      20.65013       88.038317      108.68845      11.613474      9.6241869    
1000000000   283.47474      25.15013       83.653451      108.80358      24.622349      58.588021    
1002000000   278.35455      26.625974      82.142483      108.76846      11.582047      26.203387    
1004000000   291.05925      22.794689      85.891642      108.68633      13.239653      15.75066     
1006000000   281.83805      25.587447      83.170462      108.75791      21.991256      56.063191    
1008000000   266.68673      30.052059      78.699306      108.75137      15.669441      16.842803    
1010000000   280.36389      26.009821      82.735439      108.74526      23.874193      74.693133    
1012000000   269.75741      29.189733      79.605463      108.7952       14.766325      21.017259    
1014000000   265.15617      30.516606      78.247637      108.76424      13.986888      28.847434    
1016000000   279.48247      26.314121      82.475331      108.78945      13.512561      46.769048    
1018000000   277.49562      26.861494      81.889012      108.75051      14.347723      19.921734    
1020000000   281.98196      25.620802      83.212931      108.83373      11.61098       22.603435    
1022000000   266.21873      30.301773      78.5612        108.86297      17.032942      40.381057    
1024000000   295.78398      21.450371      87.285912      108.73628      10.818979      14.047921    
1026000000   266.99089      29.900774      78.789064      108.68984      17.558338      40.014547    
1028000000   270.52596      28.952042      79.832264      108.78431      24.215136      64.171487    
1030000000   282.60556      25.3382        83.396955      108.73516      15.418464      23.862331    
1032000000   260.45075      31.92986       76.859068      108.78893      19.383172      33.663575    
1034000000   289.09543      23.419355      85.312118      108.73147      29.127426      74.132355    
1036000000   275.50624      27.457767      81.301946      108.75971      20.205661      45.512111    
1038000000   277.51288      26.741658      81.894104      108.63576      20.784728      59.306186    
1040000000   285.60901      24.446751      84.283275      108.73003      21.622309      48.358258    
1042000000   274.16375      27.870531      80.905775      108.77631      13.614165      25.843669    
1044000000   278.48106      26.528734      82.179816      108.70855      10.87164       16.600595    
1046000000   262.37245      31.348895      77.426162      108.77506      17.648238      44.243224    
1048000000   269.42981      29.26724       79.508788      108.77603      18.347422      37.564017    
1050000000   269.94499      29.129032      79.66082       108.78985      25.090851      59.535774    
1052000000   284.51705      24.794287      83.961038      108.75532      13.898372      33.065059    
1054000000   293.66044      22.040354      86.659252      108.69961      19.021134      24.995134    
1056000000   243.55831      36.976442      71.874105      108.85055      13.589778      52.566948    
1058000000   271.77171      28.537613      80.199886      108.7375       12.19981       32.24898     
1060000000   262.23941      31.4447        77.3869        108.8316       11.471881      25.580478    
1062000000   264.01845      30.885833      77.911897      108.79773      12.461801      13.866339    
1064000000   274.65226      27.72485       81.049936      108.77479      15.269351      42.185205    
1066000000   290.02921      23.055035      85.587678      108.64271      16.083941      36.536796    
1068000000   270.84347      28.8976        79.92596       108.82356      16.35481       26.475521    
1070000000   253.46041      34.025072      74.796217      108.82129      12.203083      13.825963    
1072000000   273.72992      27.92412       80.777754      108.70187      15.514863      32.496276    
1074000000   267.73617      29.781786      79.008996      108.79078      11.114032      9.3704215    
1076000000   281.01321      25.795689      82.927054      108.72274      11.13618       22.969257    
1078000000   269.57902      29.159372      79.552823      108.71219      11.894136      15.089315    
1080000000   296.20686      21.369215      87.410704      108.77992      19.889355      48.179226    
1082000000   272.07861      28.493471      80.290451      108.78392      14.635276      25.825331    
1084000000   268.72519      29.519056      79.300857      108.81991      10.904472      28.546942    
1086000000   273.44701      28.128307      80.694265      108.82257      23.598813      55.503933    
1088000000   273.87975      27.880877      80.821966      108.70284      9.3972159      10.725689    
1090000000   284.18826      24.844951      83.86401       108.70896      13.152698      14.94211     
1092000000   260.84075      31.822324      76.974157      108.79648      18.578337      42.874102    
1094000000   274.9559       27.578845      81.139541      108.71839      14.362533      23.68208     
1096000000   287.85897      23.742318      84.947238      108.68956      16.078759      42.415246    
1098000000   263.30285      31.124793      77.700724      108.82552      12.129394      22.646173    
1100000000   267.80046      29.794171      79.027967      108.82214      14.229021      12.837337    
1102000000   280.76204      25.862994      82.852932      108.71593      14.02269       29.742612    
1104000000   244.03764      36.822053      72.015555      108.83761      12.684286      44.743506    
1106000000   275.15981      27.566088      81.199712      108.7658       13.596195      18.528483    
1108000000   291.91601      22.544529      86.144472      108.689        13.997883      25.008008    
1110000000   284.40417      24.87157       83.927725      108.79929      15.626919      10.822664    
1112000000   269.05714      29.3977        79.398813      108.79651      9.8453117      21.701197    
1114000000   243.9302       36.861657      71.983851      108.84551      16.37105       27.883316    
1116000000   279.96719      26.105911      82.618372      108.72428      16.886269      37.849239    
1118000000   275.17111      27.57148       81.203047      108.77453      11.635704      36.362386    
1120000000   283.32425      25.022285      83.609041      108.63133      22.886549      61.505593    
1122000000   261.84425      31.538873      77.270288      108.80916      15.628909      43.347362    
1124000000   279.88824      26.208072      82.595074      108.80315      13.806382      32.443749    
1126000000   263.35428      31.07625       77.715898      108.79215      15.396958      21.328371    
1128000000   271.5638       28.608271      80.13853       108.7468       12.078089      11.705354    
1130000000   260.30772      31.968125      76.816858      108.78498      17.30365       27.385776    
1132000000   265.77428      30.331053      78.430043      108.7611       9.5038291      23.611978    
1134000000   282.03284      25.477265      83.227945      108.70521      18.875157      42.23104     
1136000000   253.22596      34.12421       74.727032      108.85124      16.599969      33.152187    
1138000000   280.74412      25.91781       82.847643      108.76545      16.007739      16.376904    
1140000000   280.49734      25.985132      82.774819      108.75995      13.773466      17.47848     
1142000000   284.05398      24.927039      83.824384      108.75142      23.311777      76.677274    
1144000000   255.76058      33.371921      75.474997      108.84692      19.949449      63.079138    
1146000000   276.79232      27.111292      81.681468      108.79276      14.495567      44.081927    
1148000000   263.81122      30.936163      77.850742      108.78691      16.891671      18.492442    
1150000000   263.73297      30.959353      77.82765       108.787        18.433423      45.375091    
1152000000   276.63615      27.129632      81.635383      108.76501      13.877839      20.853875    
1154000000   270.90401      28.860991      79.943825      108.80482      14.43658       35.796331    
1156000000   267.64909      29.818897      78.983299      108.8022       15.247614      22.661982    
1158000000   267.16083      29.944232      78.839214      108.78345      19.9621        57.546022    
1160000000   265.65675      30.451623      78.395358      108.84698      25.443997      74.220358    
1162000000   269.43355      29.248148      79.509893      108.75804      20.512144      55.64026     
1164000000   264.76336      30.582365      78.13172       108.71408      16.480476      33.745667    
1166000000   271.63735      28.627209      80.160234      108.78744      19.277386      29.173803    
1168000000   275.12801      27.57816       81.19033       108.76849      12.855744      28.720946    
1170000000   252.89323      34.196271      74.628841      108.82511      17.875084      46.325531    
1172000000   268.45436      29.53538       79.220933      108.75631      8.7896205      22.858298    
1174000000   263.87231      30.99898       77.868772      108.86775      7.622563       7.8204143    
1176000000   270.01158      29.016543      79.68047       108.69701      14.743962      30.458902    
1178000000   268.52708      29.443679      79.242393      108.68607      13.940373      14.705033    
1180000000   268.21953      29.649415      79.151634      108.80105      10.316732      31.821217    
1182000000   260.86697      31.876146      76.981893      108.85804      26.353358      74.020182    
1184000000   294.70008      21.725219      86.96605       108.69127      12.99123       17.944909    
1186000000   276.05481      27.40198       81.463827      108.86581      15.494048      26.751088    
1188000000   304.58936      18.795979      89.884378      108.68036      18.424133      29.440021    
1190000000   281.43863      25.665548      83.052594      108.71814      24.457425      30.539095    
1192000000   283.40476      25.079458      83.6328        108.71226      10.945941      20.238818    
1194000000   274.93604      27.643068      81.133678      108.77675      13.777592      47.204979    
1196000000   274.92937      27.6252        81.131712      108.75691      13.064243      47.771709    
1198000000   273.56949      28.012514      80.73041       108.74292      13.897299      25.81388     
1200000000   258.05019      32.694081      76.15066       108.84474      12.640418      33.387459    
1202000000   288.53704      23.569827      85.147336      108.71716      21.32258       42.286387    
1204000000   281.45844      25.676678      83.058441      108.73512      21.382144      45.6672      
1206000000   258.02456      32.764167      76.143099      108.90727      14.506068      24.718237    
1208000000   282.02846      25.475423      83.226655      108.70208      9.9706763      20.834775    
1210000000   264.34014      30.813875      78.006826      108.8207       24.632408      56.361071    
1212000000   270.14861      29.056514      79.720908      108.77742      12.307145      19.241359    
1214000000   268.33428      29.578956      79.185499      108.76446      12.678379      19.80623     
1216000000   280.00096      26.114608      82.628337      108.74295      27.499786      81.96209     
1218000000   277.40694      26.875947      81.862843      108.73879      13.459721      27.718168    
1220000000   274.7291       27.708376      81.07261       108.78099      18.598126      52.443627    
1222000000   284.33191      24.832357      83.906402      108.73876      10.969607      8.6954405    
1224000000   277.02368      26.99973       81.749741      108.74947      17.278463      40.735496    
1226000000   275.71708      27.392029      81.364163      108.75619      9.2142524      27.973539    
1228000000   278.97973      26.434918      82.326973      108.76189      11.933027      35.267363    
1230000000   279.24088      26.307935      82.404037      108.71197      13.929466      12.215786    
1232000000   276.85253      27.119844      81.699236      108.81908      16.723515      31.390641    
1234000000   278.77035      26.573738      82.265186      108.83892      16.02108       41.062365    
1236000000   256.47323      33.125055      75.685301      108.81036      16.496344      32.306035    
1238000000   273.15031      28.183137      80.60671       108.78985      12.870379      29.428449    
1240000000   279.56486      26.270867      82.499646      108.77051      14.929595      40.783374    
1242000000   262.86838      31.251855      77.572509      108.82436      11.288357      11.39069     
1244000000   289.24697      23.367915      85.356837      108.72475      14.801909      29.792543    
1246000000   292.33012      22.481263      86.266677      108.74794      15.485809      33.273196    
1248000000   272.11588      28.454194      80.301451      108.75565      14.045483      9.6491481    
1250000000   257.62676      32.792483      76.025708      108.81819      17.759665      23.720843    
1252000000   278.42009      26.604786      82.161824      108.76661      15.462517      30.726606    
1254000000   281.83453      25.520684      83.169425      108.69011      14.746423      30.771239    
1256000000   274.62525      27.766959      81.041964      108.80892      15.045491      31.437977    
1258000000   277.88833      26.720904      82.0049        108.7258       20.516946      34.999516    
1260000000   277.28374      26.949728      81.826486      108.77621      19.579862      54.116443    
1262000000   282.03971      25.607929      83.229974      108.8379       13.224204      6.937638     
1264000000   269.92713      29.090914      79.655548      108.74646      13.378556      20.485407    
1266000000   272.50056      28.344037      80.41497       108.75901      15.90995       47.834079    
1268000000   264.73274      30.664493      78.122684      108.78718      20.363033      52.84385     
1270000000   271.31392      28.77615       80.064792      108.84094      12.922672      40.588256    
1272000000   261.04561      31.77153       77.03461       108.80614      10.593033      18.102771    
1274000000   260.71451      31.862195      76.936903      108.7991       20.598503      40.975789    
1276000000   286.38998      24.261193      84.513738      108.77493      15.677314      33.983139    
1278000000   262.23499      31.386934      77.385598      108.77253      11.782992      17.127557    
1280000000   277.19861      26.956584      81.801364      108.75795      9.0930665      15.392378    
1282000000   289.10633      23.444444      85.315335      108.75978      16.204581      24.71204     
1284000000   278.69492      26.636965      82.242926      108.87989      15.657501      33.282747    
1286000000   284.48966      24.775096      83.952955      108.72805      16.033299      49.144876    
1288000000   294.51111      21.760883      86.910285      108.67117      22.729382      52.299532    
1290000000   271.80844      28.498373      80.210724      108.7091       12.893914      36.700069    
1292000000   257.01085      32.966075      75.843952      108.81003      13.432616      30.777466    
1294000000   274.49798      27.725171      81.004406      108.72958      18.642836      65.75087     
1296000000   264.44355      30.751251      78.037343      108.78859      18.399143      39.889923    
1298000000   269.84325      29.119694      79.630795      108.75049      16.266519      38.951678    
1300000000   286.55811      24.215101      84.563354      108.77846      13.143688      15.363312    
1302000000   250.2219       34.997         73.840531      108.83753      13.948659      14.170594    
1304000000   293.42298      22.205077      86.58918       108.79426      11.024305      27.525682    
1306000000   251.07836      34.776813      74.093273      108.87009      19.211372      41.837766    
1308000000   289.75648      23.243116      85.507195      108.75031      19.859324      48.545998    
1310000000   264.28623      30.799156      77.990918      108.79007      14.504325      35.561162    
1312000000   271.16358      28.738141      80.020425      108.75857      14.774215      23.575566    
1314000000   289.87714      23.122065      85.542801      108.66487      19.616401      47.646265    
1316000000   294.11669      21.893539      86.793892      108.68743      11.136961      9.4346868    
1318000000   284.82609      24.68573       84.052233      108.73796      15.032151      38.905462    
1320000000   277.43259      26.830508      81.87041       108.70092      16.803459      33.655298    
1322000000   265.00154      30.630871      78.202005      108.83288      9.9835648      32.345217    
1324000000   277.1116       26.979052      81.775686      108.75474      15.721966      23.16978     
1326000000   265.04035      30.559457      78.21346       108.77292      17.619362      35.451589    
1328000000   274.32761      27.806785      80.95413       108.76092      14.33066       31.263378    
1330000000   268.89137      29.404587      79.349895      108.75448      13.945773      17.345073    
1332000000   266.75682      30.043568      78.719989      108.76356      13.210303      24.303459    
1334000000   288.34397      23.650212      85.090362      108.74057      15.12053       44.606728    
1336000000   279.60011      26.253858      82.510047      108.76391      13.79654       22.727012    
1338000000   285.68986      24.469549      84.307134      108.77668      11.448782      28.858092    
1340000000   263.91451      30.933256      77.881222      108.81448      13.033849      50.493759    
1342000000   267.93767      29.750539      79.068459      108.819        11.697016      19.458402    
1344000000   269.93033      29.152807      79.656493      108.8093       17.922535      28.375245    
1346000000   255.94337      33.268859      75.528939      108.7978       14.072312      50.849663    
1348000000   259.8472       32.155318      76.68096       108.83628      11.016758      13.476575    
1350000000   280.62528      25.905221      82.812574      108.71779      16.560088      55.363456    
1352000000   268.56328      29.61978       79.253075      108.87286      18.133135      69.47913     
1354000000   271.24378      28.816659      80.044093      108.86075      21.10836       35.628429    
1356000000   276.84822      26.995097      81.697964      108.69306      9.8801378      12.238064    
1358000000   282.19365      25.443886      83.275401      108.71929      22.26528       48.860227    
1360000000   286.11705      24.30588       84.433198      108.73908      12.058261      25.118854    
1362000000   281.73506      25.689182      83.140071      108.82925      14.492189      30.70168     
1364000000   278.62802      26.644422      82.223182      108.8676       20.020918      67.897669    
1366000000   278.53217      26.584053      82.194899      108.77895      14.36345       12.332133    
1368000000   264.2673       30.851651      77.985333      108.83698      18.804578      37.134864    
1370000000   273.58518      27.985791      80.735041      108.72083      22.847932      54.42421     
1372000000   279.02002      26.381346      82.338863      108.72021      14.484724      36.381114    
1374000000   276.77679      27.046314      81.676885      108.7232       22.553714      55.125765    
1376000000   278.66619      26.567474      82.234447      108.80192      17.469846      48.161066    
1378000000   271.12158      28.779905      80.00803       108.78794      18.013024      41.983214    
1380000000   274.61714      27.789542      81.039573      108.82911      15.615556      26.532149    
1382000000   282.64513      25.358309      83.408631      108.76694      13.086742      48.754353    
1384000000   277.99416      26.733787      82.036131      108.76992      12.567469      22.065323    
1386000000   290.40207      23.126929      85.697708      108.82464      13.46755       19.578746    
1388000000   283.68772      25.05318       83.716301      108.76948      17.254255      39.026891    
1390000000   284.98036      24.64925       84.097761      108.74701      10.592746      35.458174    
1392000000   289.56161      23.346395      85.449687      108.79608      17.28023       57.162092    
1394000000   274.36221      27.833819      80.964341      108.79816      12.750016      39.460358    
1396000000   294.79276      21.764533      86.9934        108.75793      20.017295      59.53057     
1398000000   273.40896      28.073613      80.683037      108.75665      26.025285      62.401052    
1400000000   278.00854      26.696856      82.040375      108.73723      11.588233      25.855298    
1402000000   272.25923      28.43268       80.343752      108.77643      10.942584      19.506812    
1404000000   260.39024      32.004071      76.841211      108.84528      18.28319       47.72237     
1406000000   245.95849      36.240685      72.582399      108.82308      9.5460206      18.272891    
1408000000   279.82407      26.163445      82.576139      108.73958      15.938332      39.668517    
1410000000   268.0039       29.763516      79.088002      108.85152      12.346829      19.3726      
1412000000   285.36376      24.514612      84.210902      108.72551      12.810005      31.538703    
1414000000   273.62782      28.05715       80.747622      108.80477      10.226557      15.821706    
1416000000   255.58124      33.359548      75.422075      108.78162      22.215986      68.849112    
1418000000   267.77059      29.77175       79.019152      108.7909       15.8362        31.245267    
1420000000   262.38975      31.353603      77.431265      108.78487      10.352101      18.92823     
1422000000   274.1202       28.008814      80.892924      108.90174      15.063836      21.453662    
1424000000   305.75384      18.44664       90.228019      108.67466      17.398251      58.836359    
1426000000   299.01132      20.456619      88.238299      108.69492      12.965146      25.595022    
1428000000   274.26557      27.829724      80.935824      108.76555      13.802542      41.893585    
1430000000   271.82996      28.582435      80.217073      108.79951      14.558614      15.935245    
1432000000   281.23197      25.737819      82.991609      108.72943      16.736908      39.842978    
1434000000   284.62081      24.727718      83.991658      108.71938      15.469849      29.361715    
1436000000   285.68602      24.435535      84.306         108.74153      20.720335      58.404903    
1438000000   275.41732      27.45482       81.275705      108.73053      20.518183      35.37755     
1440000000   284.98438      24.663278      84.098945      108.76222      11.516674      28.597139    
[...]
1638000000   287.12163      24.024895      84.729649      108.75454      13.45457       30.18887     
1640000000   268.48984      29.532004      79.231404      108.76341      11.976867      26.842791    
1642000000   272.27894      28.451484      80.34957       108.80105      16.299037      24.311183    
1644000000   273.98954      27.924337      80.854367      108.7787       13.650199      18.801744    
1646000000   287.76095      23.87526       84.918314      108.79357      12.075781      24.977184    
1648000000   279.15796      26.396521      82.379569      108.77609      11.050978      18.730526    
1650000000   265.58584      30.475102      78.374433      108.84954      14.34607       12.740587    
1652000000   272.1443       28.454987      80.309837      108.76482      13.732105      24.104817    
1654000000   293.88318      21.965025      86.724984      108.69001      13.549148      35.843332    
1656000000   274.07336      27.944041      80.879101      108.82314      14.002217      36.540713    
1658000000   252.89351      34.160551      74.628924      108.78948      14.575532      28.592782    
1660000000   283.34084      25.080094      83.613937      108.69403      19.775025      32.158937    
1662000000   296.74714      21.134414      87.57014       108.70455      13.902604      31.685366    
1664000000   292.46275      22.446029      86.305814      108.75184      15.269786      23.645279    
1666000000   268.62654      29.477623      79.271746      108.74937      18.389734      51.627198    
1668000000   265.93181      30.358807      78.47653       108.83534      12.678863      47.091054    
1670000000   288.40607      23.684907      85.108688      108.7936       10.313875      24.87137     
1672000000   263.45697      31.016894      77.746204      108.7631       9.8244487      10.817693    
1674000000   288.05281      23.766759      85.00444       108.7712       19.177807      35.586863    
1676000000   266.63033      30.107659      78.682664      108.79032      13.098606      23.215288    
1678000000   270.15289      29.012026      79.722171      108.7342       16.530509      48.113729    
1680000000   277.76566      26.820623      81.968701      108.78932      9.8703166      18.255701    
1682000000   283.62073      25.091268      83.696533      108.7878       14.142294      42.775232    
1684000000   264.515        30.698912      78.058427      108.75734      18.368831      43.537047    
1686000000   282.06015      25.514544      83.236005      108.75055      10.281324      15.438268    
1688000000   288.27537      23.69839       85.070119      108.76851      14.29981       36.891399    
1690000000   277.94132      26.65269       82.020537      108.67323      19.616383      73.959532    
1692000000   263.11608      31.203632      77.645605      108.84924      11.397148      16.689552    
1694000000   277.68575      26.850166      81.945119      108.79529      16.656971      20.253352    
1696000000   282.10062      25.553354      83.247948      108.8013       18.297898      25.016115    
1698000000   290.83863      22.909189      85.826536      108.73572      18.328606      20.389723    
1700000000   284.75131      24.64511       84.030166      108.67528      13.376289      44.740579    
1702000000   265.96071      30.282332      78.485057      108.76739      15.073513      41.949636    
1704000000   265.22915      30.553723      78.269175      108.8229       14.935493      35.062474    
1706000000   290.93497      22.822012      85.854967      108.67698      13.945218      18.793779    
1708000000   279.58743      26.268526      82.506304      108.77483      15.427631      22.677431    
1710000000   276.02873      27.261317      81.456133      108.71745      16.270031      27.330648    
1712000000   258.27884      32.515662      76.218135      108.7338       14.176025      39.723652    
1714000000   272.96889      28.18495       80.553173      108.73812      12.258531      27.806474    
1716000000   276.10863      27.230083      81.47971       108.70979      19.515536      50.064342    
1718000000   275.55828      27.467494      81.317301      108.7848       11.66609       19.094828    
1720000000   270.31965      29.004804      79.771381      108.77619      16.744915      39.414067    
1722000000   248.76592      35.431235      73.410872      108.84211      18.285144      56.051847    
1724000000   242.4295       37.309525      71.540994      108.85052      13.000277      22.468347    
1726000000   284.93229      24.634446      84.083574      108.71802      15.538851      11.114946    
1728000000   289.68385      23.267039      85.485759      108.7528       18.858198      43.786498    
1730000000   274.72222      27.680606      81.070582      108.75119      17.719057      25.656725    
1732000000   264.45889      30.700723      78.041869      108.74259      17.802515      41.025854    
1734000000   287.83152      23.75326       84.939139      108.6924       11.641903      21.568733    
1736000000   270.59179      28.909545      79.851689      108.76123      19.707225      22.847487    
1738000000   251.0163       34.76499       74.074959      108.83995      14.058815      31.838558    
1740000000   276.35067      27.162068      81.551137      108.7132       12.436353      36.558968    
1742000000   273.25076      28.132822      80.636353      108.76918      24.456976      63.250265    
1744000000   289.55382      23.263703      85.447389      108.71109      21.522092      53.854656    
1746000000   281.17749      25.775369      82.975531      108.7509       16.41006       43.724625    
1748000000   280.52086      25.954787      82.78176       108.73655      16.843143      31.300579    
1750000000   291.84105      22.628532      86.122351      108.75088      17.185524      28.402982    
1752000000   247.12302      35.917907      72.926051      108.84396      16.344542      35.49281     
1754000000   280.51591      25.950519      82.780301      108.73082      22.492457      80.666456    
1756000000   278.19281      26.640524      82.094752      108.73528      16.147691      46.290599    
1758000000   294.08219      21.908303      86.783711      108.69201      15.059885      44.619534    
1760000000   264.80639      30.693555      78.144417      108.83797      11.95593       38.226459    
1762000000   260.01974      32.024938      76.731876      108.75681      13.095008      30.010302    
1764000000   283.20354      25.089809      83.573421      108.66323      17.355474      62.961855    
1766000000   273.0635       28.227712      80.581093      108.8088       11.012932      27.352564    
1768000000   292.2645       22.476649      86.247312      108.72396      16.19808       50.441196    
1770000000   279.66737      26.189553      82.529897      108.71945      21.30948       54.084907    
1772000000   290.41009      23.038513      85.700075      108.73859      13.929022      36.436811    
1774000000   264.0481       30.841197      77.920646      108.76184      25.549216      64.46396     
1776000000   280.61056      25.881196      82.80823       108.68943      11.557723      37.472521    
1778000000   272.00334      28.561192      80.268238      108.82943      10.272072      20.174943    
1780000000   273.3558       28.120686      80.667349      108.78803      15.729589      34.090701    
1782000000   252.46842      34.301716      74.50348       108.8052       14.267166      34.328709    
1784000000   264.61626      30.680142      78.088309      108.76845      16.975023      56.618243    
1786000000   272.19487      28.496316      80.324759      108.82108      11.93595       25.680557    
1788000000   254.41452      33.783657      75.077775      108.86143      13.792984      20.447972    
1790000000   279.43795      26.325784      82.462194      108.78798      12.868632      20.063306    
1792000000   244.74787      36.638604      72.225145      108.86375      10.903741      16.566606    
1794000000   275.53866      27.454653      81.311512      108.76616      13.755582      31.651045    
1796000000   258.12763      32.645009      76.173513      108.81852      13.125237      20.842898    
1798000000   258.98076      32.366375      76.425274      108.79165      16.851468      37.105164    
1800000000   272.42522      28.338924      80.392736      108.73166      10.000676      28.427344    
1802000000   260.01237      32.103748      76.729701      108.83345      14.616425      11.798225    
1804000000   256.46908      33.086392      75.684076      108.77047      14.985901      33.130843    
1806000000   289.01992      23.416269      85.289833      108.7061       15.851668      38.659804    
1808000000   285.89125      24.34595       84.366564      108.71251      17.022937      20.340228    
1810000000   275.7607       27.376364      81.377035      108.7534       12.866609      15.505541    
1812000000   280.57975      25.942503      82.799138      108.74164      10.003821      22.81342     
1814000000   276.11318      27.299898      81.481052      108.78095      19.123107      50.752634    
1816000000   275.84914      27.362299      81.403135      108.76543      14.820525      40.189128    
1818000000   265.14816      30.570401      78.245274      108.81568      12.932894      33.932046    
1820000000   285.29632      24.566842      84.191         108.75784      15.740358      43.606391    
1822000000   263.81675      30.975646      77.852374      108.82802      10.239993      17.959899    
1824000000   264.16897      30.798006      77.956315      108.75432      11.3166        19.291993    
1826000000   265.68739      30.391578      78.4044        108.79598      13.733156      26.436417    
1828000000   268.9598       29.415976      79.370089      108.78606      30.47699       69.068637    
1830000000   273.08309      28.169488      80.586874      108.75636      17.282206      47.718001    
1832000000   249.20272      35.219968      73.539771      108.75974      15.439088      52.153741    
1834000000   276.87052      27.034507      81.704544      108.73905      13.505532      16.858597    
1836000000   277.30614      26.884874      81.833095      108.71797      9.9765532      20.173924    
1838000000   282.20422      25.516262      83.278522      108.79478      11.526514      20.534468    
1840000000   274.1005       27.931554      80.88711       108.81866      13.95771       36.792912    
1842000000   288.59546      23.524035      85.164577      108.68861      12.709277      22.499515    
1844000000   289.43028      23.341383      85.410931      108.75231      15.769828      27.666098    
1846000000   271.73846      28.578268      80.190074      108.76834      13.099119      46.357124    
1848000000   283.30251      25.144184      83.602626      108.74681      13.666522      33.728444    
1850000000   264.00629      30.918583      77.908309      108.82689      8.7595664      19.624065    
1852000000   293.06778      22.277894      86.484358      108.76225      13.212398      14.252326    
1854000000   278.71917      26.544858      82.250081      108.79494      9.9120394      20.066469    
1856000000   279.88416      26.161472      82.593871      108.75534      19.944847      51.593256    
1858000000   284.49413      24.727863      83.954273      108.68214      20.553381      64.183333    
1860000000   267.80497      29.802095      79.029297      108.83139      11.692299      16.106082    
1862000000   270.35008      29.06156       79.780361      108.84192      10.359054      14.977379    
1864000000   290.18439      23.073175      85.63347       108.70665      23.605115      59.394918    
1866000000   275.56586      27.499611      81.31954       108.81915      10.952387      15.221685    
1868000000   282.1233       25.459025      83.25464       108.71367      17.640847      46.687362    
1870000000   281.53549      25.685131      83.081179      108.76631      12.239068      20.089068    
1872000000   292.45957      22.417855      86.304877      108.72273      15.480481      42.942852    
1874000000   266.87433      30.027337      78.754667      108.782        19.500579      47.206669    
1876000000   290.83957      22.94123       85.826814      108.76804      14.783214      36.661117    
1878000000   269.43363      29.170644      79.509916      108.68056      8.4337703      16.909385    
1880000000   283.74498      24.963057      83.733198      108.69626      10.450536      16.655235    
1882000000   238.67097      38.481316      70.431849      108.91317      20.046223      38.887453    
1884000000   279.9223       26.083289      82.605125      108.68841      18.249497      32.782333    
1886000000   285.04587      24.637897      84.117091      108.75499      9.7468569      11.910226    
1888000000   278.29643      26.587548      82.125332      108.71288      14.838083      36.878384    
1890000000   275.74901      27.264571      81.373588      108.63816      10.643579      23.887607    
1892000000   281.89169      25.579051      83.186293      108.76534      13.691167      32.806367    
1894000000   269.47798      29.197738      79.523003      108.72074      18.673521      55.441205    
1896000000   272.6516       28.315931      80.459542      108.77547      16.34629       46.283043    
1898000000   286.69555      24.195956      84.603912      108.79987      17.500432      36.390381    
1900000000   263.57301      31.004211      77.780446      108.78466      16.778225      28.225767    
1902000000   275.46803      27.446778      81.29067       108.73745      11.912241      26.557555    
1904000000   272.18073      28.414374      80.320585      108.73496      16.640549      35.68776     
1906000000   288.94186      23.440759      85.266799      108.70756      11.489857      23.429715    
1908000000   283.29246      25.243624      83.599661      108.84329      12.164903      28.553835    
1910000000   283.12817      25.230142      83.551178      108.78132      12.838122      17.723591    
1912000000   263.26043      31.139297      77.688203      108.8275       14.570472      31.619143    
1914000000   261.11045      31.762749      77.053744      108.81649      11.879912      27.91465     
1916000000   270.65608      28.866033      79.870663      108.7367       19.153852      47.795087    
1918000000   283.10789      25.256176      83.545194      108.80137      12.613823      15.937604    
1920000000   288.88797      23.513013      85.250897      108.76391      16.100908      33.218254    
1922000000   267.34524      29.863229      78.893634      108.75686      15.143787      21.207101    
1924000000   275.2913       27.543173      81.238515      108.78169      13.435364      26.837915    
1926000000   269.23372      29.355002      79.450924      108.80593      21.477681      48.956523    
1928000000   278.13999      26.698065      82.079164      108.77723      16.829412      22.053012    
1930000000   272.78236      28.293944      80.498129      108.79207      14.829186      35.126384    
1932000000   268.93158      29.413427      79.361762      108.77519      16.946796      29.2808      
1934000000   271.23978      28.713816      80.042913      108.75673      10.81938       16.184938    
1936000000   276.36551      27.218894      81.555517      108.77441      14.382978      29.58248     
1938000000   279.24176      26.317448      82.404299      108.72175      22.271516      51.023173    
1940000000   295.89101      21.37548       87.317494      108.69297      15.260152      39.740839    
1942000000   258.68086      32.460679      76.336774      108.79745      12.183586      27.754019    
1944000000   275.14626      27.529603      81.195715      108.72532      18.270454      37.617735    
1946000000   273.14234      28.166228      80.604356      108.77058      12.407065      16.277108    
1948000000   281.12929      25.812084      82.961309      108.77339      14.971511      61.57899     
1950000000   275.0112       27.634466      81.155859      108.79033      20.143507      59.549469    
1952000000   283.28509      25.117327      83.597485      108.71481      24.104126      66.387753    
1954000000   263.21451      31.148612      77.674655      108.82327      13.403148      2.3419148    
1956000000   266.97052      30.0144        78.783053      108.79745      16.747202      20.149387    
1958000000   281.6514       25.675828      83.115382      108.79121      13.591326      24.581302    
1960000000   268.81224      29.506435      79.326543      108.83298      20.409261      71.853108    
1962000000   285.64074      24.478216      84.292637      108.77085      18.220792      27.716366    
1964000000   273.91205      27.943805      80.8315        108.77531      22.831389      80.492474    
1966000000   264.47462      30.726084      78.046512      108.7726       19.575494      33.089308    
1968000000   275.52445      27.480711      81.307318      108.78803      14.954796      26.416993    
1970000000   286.31132      24.298114      84.490528      108.78864      19.166491      42.511589    
1972000000   280.67276      25.964902      82.826587      108.79149      13.265532      37.37646     
1974000000   273.90168      27.88585       80.82844       108.71429      30.05797       69.02751     
1976000000   282.93148      25.188183      83.493135      108.68132      15.741205      34.80306     
1978000000   265.90227      30.338708      78.46781       108.80652      16.272712      41.015433    
1980000000   267.60454      29.850256      78.970151      108.82041      13.406374      27.148623    
1982000000   263.74323      30.945324      77.830678      108.776        13.188364      27.663681    
1984000000   250.27252      35.020303      73.85547       108.87577      15.066498      33.487724    
1986000000   307.36113      17.976389      90.70233       108.67872      19.348273      36.588219    
1988000000   281.9319       25.592161      83.198157      108.79032      10.414451      16.936671    
1990000000   256.41769      33.13409       75.66891       108.803        11.891882      22.506681    
1992000000   266.82572      30.037496      78.740323      108.77782      16.43409       42.554029    
1994000000   279.84708      26.124954      82.582928      108.70788      11.115901      28.01389     
1996000000   266.54549      30.17137       78.657626      108.829        14.828976      28.337332    
1998000000   272.62728      28.334038      80.452363      108.7864       14.949493      39.223511    
2000000000   278.57636      26.520684      82.207939      108.72862      21.049791      42.246716    
2000050022   261.93949      31.540815      77.298396      108.83921      10.452886      18.808273    
Loop time of 4728.96 on 1 procs for 2000000000 steps with 100 atoms

Performance: 365407.922 ns/day, 0.000 hours/ns, 422925.835 timesteps/s, 42.293 Matom-step/s
100.0% CPU use with 1 MPI tasks x no OpenMP threads

MPI task timing breakdown:
Section |  min time  |  avg time  |  max time  |%varavg| %total
---------------------------------------------------------------
Pair    | 0          | 0          | 0          |   0.0 |  0.00
Bond    | 1710.7     | 1710.7     | 1710.7     |   0.0 | 36.17
Neigh   | 392.14     | 392.14     | 392.14     |   0.0 |  8.29
Comm    | 382.46     | 382.46     | 382.46     |   0.0 |  8.09
Output  | 0.19073    | 0.19073    | 0.19073    |   0.0 |  0.00
Modify  | 1686.8     | 1686.8     | 1686.8     |   0.0 | 35.67
Other   |            | 556.7      |            |       | 11.77

Nlocal:            100 ave         100 max         100 min
Histogram: 1 0 0 0 0 0 0 0 0 0
Nghost:              0 ave           0 max           0 min
Histogram: 1 0 0 0 0 0 0 0 0 0
Neighs:              0 ave           0 max           0 min
Histogram: 1 0 0 0 0 0 0 0 0 0

Total # of neighbors = 0
Ave neighs/atom = 0
Ave special neighs/atom = 5.88
Neighbor list builds = 223421130
Dangerous builds = 0
unfix           prod

write_data      pdms_out.data
System init for write_data ...
Total wall time: 1:18:49
