LAMMPS data file via write_data, version 29 Aug 2024, timestep = 1050022, units = real

100 atoms
2 atom types
99 bonds
1 bond types

-77.3707 77.3707 xlo xhi
-77.3707 77.3707 ylo yhi
-77.3707 77.3707 zlo zhi

Masses

1 72
2 72

Bond Coeffs # harmonic

1 27.486 4.48

Atoms # full

1 1 1 0 19.278652489338356 13.827713418083134 -15.630179856718886 0 0 0
2 1 2 0 16.17033899870967 10.679080646082431 -16.66261674176447 0 0 0
3 1 2 0 12.856080215340798 9.180278538523064 -13.90651350996083 0 0 0
4 1 2 0 9.607364997106648 8.803394186365555 -16.816650910537387 0 0 0
5 1 2 0 6.831965849704654 9.357524941602557 -20.43167467646246 0 0 0
6 1 2 0 9.931705797514587 12.276421347527592 -19.030347757699925 0 0 0
7 1 2 0 7.467046047990983 8.697402509824633 -19.940719067775902 0 0 0
8 1 2 0 9.30410011777626 5.2436656163555915 -18.078150094345656 0 0 0
9 1 2 0 5.4498467723234265 3.714601670257214 -16.602923245279293 0 0 0
10 1 2 0 6.8936807362846855 7.5057664354442055 -14.315590570410228 0 0 0
11 1 2 0 5.530252534842846 5.435561344388333 -17.934477497777284 0 0 0
12 1 2 0 3.030179259017373 9.083790422042174 -17.166507997704713 0 0 0
13 1 2 0 3.328318352618631 9.488393344143526 -21.765598681676792 0 0 0
14 1 2 0 2.4953362538334543 8.89078161200426 -17.186677062062277 0 0 0
15 1 2 0 0.49425391074479175 5.068083741803528 -16.89904525074487 0 0 0
16 1 2 0 0.7350336779127682 4.733540181933172 -12.5003103991755 0 0 0
17 1 2 0 2.1821221075574253 0.4844153752686976 -13.03789454414605 0 0 0
18 1 2 0 6.282782167699652 -1.1329065644593368 -12.439193760479778 0 0 0
19 1 2 0 8.272558637710146 0.9839029681450225 -9.08155471188007 0 0 0
20 1 2 0 8.865571410972315 0.34985832451061866 -4.6366219066626355 0 0 0
21 1 2 0 12.437097061845119 1.9754198439241826 -6.818256709533492 0 0 0
22 1 2 0 12.493138905617817 -2.016421719694091 -9.123892023210214 0 0 0
23 1 2 0 14.920306945165974 -5.272181901938445 -7.655258763172321 0 0 0
24 1 2 0 13.448774333586485 -5.3732079569772875 -3.2075815184336935 0 0 0
25 1 2 0 12.98063351758539 -8.742900380528477 -0.5946505964089329 0 0 0
26 1 2 0 12.575567172587606 -7.072641592499264 -4.956694913269476 0 0 0
27 1 2 0 11.810731266461389 -11.489405698999615 -5.685846320372736 0 0 0
28 1 2 0 15.737248341414391 -13.565433727184248 -6.533596914768442 0 0 0
29 1 2 0 13.802540469045136 -14.676694440785848 -10.202414958224765 0 0 0
30 1 2 0 9.507815608975394 -14.656499676164175 -9.378362765569381 0 0 0
31 1 2 0 6.846211331266623 -11.45327580115715 -11.110894844639128 0 0 0
32 1 2 0 4.9309278467607385 -14.51758278342217 -8.281033864959085 0 0 0
33 1 2 0 8.052004912791904 -14.03385952436935 -11.358934219783265 0 0 0
34 1 2 0 6.231522404709517 -10.021995335856658 -11.187918062271683 0 0 0
35 1 2 0 9.962554181773845 -12.797928547970155 -10.495382363374935 0 0 0
36 1 2 0 14.216984940611288 -11.458329632962547 -10.780794396957702 0 0 0
37 1 2 0 15.535575439192996 -15.64777887931641 -11.257328873805555 0 0 0
38 1 2 0 16.938218360646964 -19.9244900287619 -10.86660166719135 0 0 0
39 1 2 0 15.639068757157057 -16.090653104496713 -12.684148983948234 0 0 0
40 1 2 0 14.557533587209928 -20.28048769503689 -13.423853147943078 0 0 0
41 1 2 0 12.982669101679145 -21.38785303611072 -9.546214073643638 0 0 0
42 1 2 0 16.621219086855717 -24.170299050106035 -9.81624061831459 0 0 0
43 1 2 0 14.764085094625484 -27.570300062663886 -7.411671289519484 0 0 0
44 1 2 0 12.944015482566286 -25.85640727491955 -11.231667348496478 0 0 0
45 1 2 0 15.398347435468057 -22.052219188301873 -10.698455180615268 0 0 0
46 1 2 0 12.37616236136105 -19.743080870884896 -8.413506110871658 0 0 0
47 1 2 0 16.136267418956663 -22.52767538711042 -8.040409697225295 0 0 0
48 1 2 0 20.313292169992692 -23.4399661131416 -8.760584881893918 0 0 0
49 1 2 0 17.832690581588942 -22.68156000333453 -4.948155480285209 0 0 0
50 1 2 0 14.497269636150532 -25.28794025012378 -3.575784093018878 0 0 0
51 1 2 0 14.572233496184625 -21.59456886475766 -0.9391873758585281 0 0 0
52 1 2 0 12.668066659516004 -24.951032955778256 -2.9540377702988967 0 0 0
53 1 2 0 10.319489704074735 -21.611459755987465 -0.9451496063088202 0 0 0
54 1 2 0 7.515567120503839 -22.643812269554832 2.555568901894659 0 0 0
55 1 2 0 8.957851705846227 -25.201392561964752 5.8223003786049405 0 0 0
56 1 2 0 12.137657776460403 -23.865543167727385 2.9806627344162426 0 0 0
57 1 2 0 10.618941538657113 -24.270785453873298 7.237179385461362 0 0 0
58 1 2 0 11.702262533426468 -26.000962581934107 11.169472814375828 0 0 0
59 1 2 0 10.804595828022657 -25.0602930430623 6.828617793518327 0 0 0
60 1 2 0 13.088739735482552 -28.868457075195938 7.416187320217025 0 0 0
61 1 2 0 15.457958870673016 -30.037147022010153 10.706979503772418 0 0 0
62 1 2 0 16.583355036066617 -26.20447829935987 8.50545615847172 0 0 0
63 1 2 0 14.804278752727857 -22.212340073830802 9.57658515147803 0 0 0
64 1 2 0 10.766639030980055 -20.51326302297179 8.689499375860352 0 0 0
65 1 2 0 14.763057308536466 -18.158965838035087 9.394521658903237 0 0 0
66 1 2 0 10.79231892358515 -19.469914870243066 7.674057358398173 0 0 0
67 1 2 0 14.96134103650437 -20.285972853590394 8.725643862435469 0 0 0
68 1 2 0 16.689779493383192 -17.80032198052417 12.013671899647305 0 0 0
69 1 2 0 14.754049416271668 -20.415995893956048 14.991914095368712 0 0 0
70 1 2 0 12.708467433695223 -19.243164286662076 18.93064050745417 0 0 0
71 1 2 0 14.401756113883199 -22.49036747159687 16.47995350528162 0 0 0
72 1 2 0 13.33116178097782 -24.757617536531274 20.20831010134565 0 0 0
73 1 2 0 10.027831367111526 -26.753253540518983 17.53916641371571 0 0 0
74 1 2 0 8.202310186262993 -24.0392702810908 20.733444009808576 0 0 0
75 1 2 0 11.923362519059044 -23.303152586174125 18.545540755128556 0 0 0
76 1 2 0 13.89454728504414 -21.50654694356839 15.057982542298985 0 0 0
77 1 2 0 16.612603943595396 -23.33872075271715 18.204337675706263 0 0 0
78 1 2 0 15.24364791233166 -20.497033889641063 21.213280787151 0 0 0
79 1 2 0 18.35826259954734 -22.12165979372119 18.154243986653015 0 0 0
80 1 2 0 14.67189640172787 -21.950731476721277 15.882115236498182 0 0 0
81 1 2 0 10.462062593046271 -21.410798202423422 14.26464557393961 0 0 0
82 1 2 0 13.939915670327006 -20.000545202476093 11.49876255109798 0 0 0
83 1 2 0 14.479504670589318 -22.5993563765224 14.880301154216328 0 0 0
84 1 2 0 13.131088638226482 -18.87260311552702 16.1287054245742 0 0 0
85 1 2 0 10.51380010103036 -22.3353907919138 17.108416271675054 0 0 0
86 1 2 0 10.858446674365291 -25.683312608381012 14.292656722435598 0 0 0
87 1 2 0 7.056530075920366 -25.27068676920377 12.376664029883633 0 0 0
88 1 2 0 5.325937330693963 -21.390371718957766 13.558434040626025 0 0 0
89 1 2 0 9.381373393438933 -21.0800927026158 11.026160510993527 0 0 0
90 1 2 0 6.652382967985578 -19.38803438562155 13.778117835481794 0 0 0
91 1 2 0 2.7279999257726906 -17.311265578284416 14.868239705951591 0 0 0
92 1 2 0 6.621996203877939 -17.893906513548355 12.789249686494781 0 0 0
93 1 2 0 5.005178716248915 -13.651453167402781 13.245967820205863 0 0 0
94 1 2 0 1.9628698969773872 -16.513627236714914 11.482137938504204 0 0 0
95 1 2 0 2.2693222730406752 -12.646607027812612 8.978983892449584 0 0 0
96 1 2 0 1.9831122582390424 -12.28802289844267 4.3300095207857225 0 0 0
97 1 2 0 3.817564119490175 -8.294200199256855 3.967583702625492 0 0 0
98 1 2 0 7.833851481887911 -10.195062816605557 4.242049313002135 0 0 0
99 1 2 0 4.513503989197039 -7.248787954834149 3.547937418814508 0 0 0
100 1 1 0 5.290169690653977 -9.660519603188236 7.568701959636452 0 0 0

Velocities

1 0.0007714121251458322 -0.0023960486356764347 -0.0005963100382565099
2 -0.004083750059438615 0.0018654818414681857 0.0023981342928568413
3 0.0012595418863182784 -0.00020968366305352854 -0.0002486472355516723
4 -0.0005917101481443397 0.002851969128744167 -0.001379740829612157
5 -0.0005830317666283887 -0.0005642567567610883 -0.0006060366167138777
6 0.0007106418811442158 0.0021017440769572782 0.0014252745487282762
7 0.0015252424573065518 -0.0018213688017783148 0.002455707985181477
8 0.00560540925774588 0.0007193801107678589 -0.001631596526865134
9 0.000961293686829733 0.000875576654824721 0.0013358137812300745
10 0.004843318908120869 -0.0012911870274395507 0.00045618312362398375
11 0.0007159307170498147 -0.001538121092660746 0.002496522108633917
12 -0.005138367467974023 0.0013982439907810555 0.0018108369430249306
13 -0.0011323318048056558 -0.0005719986715633793 0.0022576427206338293
14 -0.0032268976120109097 0.0005975006344860168 0.0003017536256207684
15 0.002095709309806313 0.004659553866398946 -0.0008383613157565747
16 -0.001318120902222254 -0.00273338770385733 -0.001015438036537081
17 0.001626495488417009 0.0005670963802764115 0.0006042627588670499
18 -0.0021460382937584874 -0.0031442553288704433 -0.0003873938315543217
19 -0.0029079098132746752 -0.0014132710960100931 0.0009946147943689571
20 -0.00146001740995206 0.0031988240086010204 -0.0004178770458756695
21 -0.0009214176601883555 -0.0011501606989788027 0.0008413092875427142
22 0.0006615276819038588 -0.002140039461946481 -0.0007811762430713755
23 0.0003360051271588317 0.0008370308357941295 -0.0018375412463323536
24 -0.00037485854692705805 -0.0017005203573833558 -0.0006304322593935949
25 0.0012946288869617219 -0.0029074156749756765 -0.003792856419279949
26 0.0022239816264843872 -0.0017006241555900575 -0.0017591998596921414
27 -0.00041869428779038424 -0.0008042059929927693 0.002125589584441034
28 -0.0016950413099678153 -0.0032802984618302377 0.0026807326496725197
29 0.00033325890660691857 0.002557108437156783 -0.002220668131084072
30 6.776775063893972e-05 -0.0007016249768737072 -0.0001755398544149853
31 -0.0008126563625337301 0.002296337601302839 -0.002423982847782782
32 0.0028980993645417678 -0.00095607563616316 0.0017643658456748081
33 0.0013245068994002236 0.0028589709529789303 0.0017686777190886569
34 0.002063286495244684 0.0007607793524387538 -0.002009919006936929
35 -0.0018808057799270805 -0.0013212711289827285 0.0021351076683729523
36 0.0004647109412167775 0.0003984933894226801 -0.00019077525497498358
37 0.0023137950360657563 0.0001167545173007857 0.001935043680304363
38 -0.0017827836142283507 -0.0002077616342196121 -0.0009114064464784375
39 -0.0015529216780705674 -0.001690479984434381 0.00210588783534435
40 0.00045848662436884387 -0.004351452827516612 -0.0003105263986400411
41 -4.714945763465881e-05 0.0004900546158118557 0.00136347772299016
42 2.332139246604553e-06 0.00017852877822923334 -0.0014657157625307731
43 0.0012196860418559018 -0.0022570414217648275 -1.3133403247510386e-05
44 -0.0006069813686408403 0.0008636255311201029 -0.0013733879528495352
45 -0.0010521940950241231 0.001853066825942324 -0.002170578572036035
46 0.002074319520702377 0.0022219850943897244 0.002315250054722511
47 -0.0023952840213687875 -0.00027247645813826 -0.00045011932599232164
48 0.0003967739893155186 -0.0005198154939287966 -0.0003028569291875325
49 -0.0005001441551830018 -0.0007514998942874896 -0.0031515469089443806
50 0.00044719013571812823 -0.001960545017226839 0.0017367291582502935
51 -0.001388852078189337 -0.0020879086324739862 -0.001755086773516355
52 -0.0004048136932721338 -0.001045309411163714 -0.0006024182493662518
53 -0.0028895704371049947 -0.002332585693860725 -0.0006250057479553124
54 -0.0012124441808617531 -0.003174822697735318 -0.00011213292450959803
55 -0.0012251032356385696 0.0018350725004459792 0.000752812365889866
56 0.0005846122878044529 0.0003416276271678402 -0.0015987959406938493
57 0.0003012187304061285 0.0019607011385014915 -0.000826306318204665
58 -0.0012026388849942372 0.0016931281146879914 -0.00016475314734433043
59 0.0013516260428932864 -0.000431163760216719 -0.00023722166552995745
60 0.003606541970827739 0.0019470422118244282 -0.0012092081337276416
61 0.004168765473055519 -0.001147631092564709 0.004605828799425633
62 -0.002072671924143823 -0.000335434721223554 0.0045063270510833624
63 0.0033451231623978692 0.005830617263375454 -0.0018923909877650003
64 0.0008840806061036039 -7.324554292150105e-05 0.0009795849411279357
65 -0.0017076933601122882 0.001665234770774605 0.0015065934513951032
66 0.002837421641202345 -0.0028256936738577047 0.0011104985934257139
67 0.0019958004609892744 -0.002567677489304485 0.0016116236699812612
68 -0.0037127171157506486 0.0059735188215133475 0.0005168724235888088
69 0.00020250233478198427 0.0006076755748306911 0.0011963229397004714
70 0.0013563178911208454 0.002004046667615394 -0.0012884702311103196
71 0.00021723268172044844 -0.0008975708256154025 -0.0032303079435402255
72 -0.0028804498876146833 -0.0016844455517599764 0.000574855776191424
73 0.00038565670767996905 0.0008384303374818411 -7.611200914833284e-05
74 -0.002618089304277965 -0.0010137486662869853 -0.001586028213990391
75 -0.0014882357226781156 -0.0006215754359517487 -0.0011827981644589813
76 0.000530904956482924 -0.0007315591493327264 -0.0005647490518087157
77 0.0025255017989589943 -0.001228700010544534 0.0008363349563421513
78 -0.000598592950931188 0.0022278613780401654 -0.0009444912920591527
79 -0.0015169444878939105 0.002437462654943952 -0.0025301779729218392
80 -0.003693420038585713 0.0010880630422678216 -0.0018635184817853766
81 -0.001580242436270932 0.004714073753768728 -0.0016366207395865535
82 -0.0006358439678677252 -3.553063501544353e-05 -0.0022959876364390406
83 -0.0011537264134017684 0.0015503655406502257 0.0030762080456225947
84 0.004635548415932711 0.00026224494472968903 -0.00036550088517146547
85 0.0026070203345700677 -0.002388222276732041 -0.0020513520010869038
86 -0.0027923745997805614 -0.001965576097918589 0.0026724987316625523
87 0.000641527839224636 -0.002149948687216833 0.001004709570256506
88 -0.00031580722546833756 -0.002276872351633135 -1.0393372201394956e-05
89 -0.0025636205888864756 -0.0018736665926901636 -0.002728313981140223
90 0.001187407031388525 0.0023280709557130397 -0.00019808572986837708
91 -0.00011701330831827213 0.0016146427805389196 -0.00014067505197143566
92 0.0004703885101001184 0.0010115878265808725 0.001452055841802994
93 0.0011258605705728201 0.00042788636307691276 0.002289667865765581
94 0.000987435673160296 -0.0017911036936721558 0.000113144962081471
95 0.0015721895679407646 4.175943893829396e-05 -0.0029769945877546914
96 0.0013581728868955578 0.0014737658938915538 0.00023581405085543509
97 0.0008082933812429649 0.0024094026700540623 0.0006941639829526262
98 0.003155874305299685 0.0003548231458787173 0.001123988824956827
99 -0.0010483162926442201 0.0002657245650005066 0.0014837709664844757
100 -0.006090088412947208 -0.0021360558501810575 -0.001865934179840636

Bonds

1 1 1 2
2 1 2 3
3 1 3 4
4 1 4 5
5 1 5 6
6 1 6 7
7 1 7 8
8 1 8 9
9 1 9 10
10 1 10 11
11 1 11 12
12 1 12 13
13 1 13 14
14 1 14 15
15 1 15 16
16 1 16 17
17 1 17 18
18 1 18 19
19 1 19 20
20 1 20 21
21 1 21 22
22 1 22 23
23 1 23 24
24 1 24 25
25 1 25 26
26 1 26 27
27 1 27 28
28 1 28 29
29 1 29 30
30 1 30 31
31 1 31 32
32 1 32 33
33 1 33 34
34 1 34 35
35 1 35 36
36 1 36 37
37 1 37 38
38 1 38 39
39 1 39 40
40 1 40 41
41 1 41 42
42 1 42 43
43 1 43 44
44 1 44 45
45 1 45 46
46 1 46 47
47 1 47 48
48 1 48 49
49 1 49 50
50 1 50 51
51 1 51 52
52 1 52 53
53 1 53 54
54 1 54 55
55 1 55 56
56 1 56 57
57 1 57 58
58 1 58 59
59 1 59 60
60 1 60 61
61 1 61 62
62 1 62 63
63 1 63 64
64 1 64 65
65 1 65 66
66 1 66 67
67 1 67 68
68 1 68 69
69 1 69 70
70 1 70 71
71 1 71 72
72 1 72 73
73 1 73 74
74 1 74 75
75 1 75 76
76 1 76 77
77 1 77 78
78 1 78 79
79 1 79 80
80 1 80 81
81 1 81 82
82 1 82 83
83 1 83 84
84 1 84 85
85 1 85 86
86 1 86 87
87 1 87 88
88 1 88 89
89 1 89 90
90 1 90 91
91 1 91 92
92 1 92 93
93 1 93 94
94 1 94 95
95 1 95 96
96 1 96 97
97 1 97 98
98 1 98 99
99 1 99 100
