ITEM: TIMESTEP
501000
ITEM: NUMBER OF ATOMS
50
ITEM: BOX BOUNDS pp pp pp
-5.2951200000000000e+01 5.2951200000000000e+01
-5.2951200000000000e+01 5.2951200000000000e+01
-5.2951200000000000e+01 5.2951200000000000e+01
ITEM: ATOMS id type x y z
45 2 -27.6771 -8.12901 -6.42466
50 1 -30.4512 -12.6628 -9.56976
49 2 -26.129 -12.7697 -10.356
40 2 -45.0784 -0.27662 -5.3116
41 2 -42.6909 -3.62115 -7.11681
42 2 -39.0343 -5.42696 -9.07785
43 2 -35.1599 -6.99118 -7.53912
6 2 -24.8924 -13.6438 0.627776
37 2 -48.7207 -9.11925 -1.51839
36 2 -44.6391 -7.35891 -1.12013
35 2 -40.3678 -7.71898 -2.41069
44 2 -31.4025 -8.64348 -9.04604
47 2 -25.3462 -7.64024 -6.13559
4 2 -27.9644 -13.525 -0.616732
48 2 -24.0633 -11.7601 -6.53558
7 2 -24.5788 -9.00784 0.580283
3 2 -24.6824 -11.6175 -2.90434
38 2 -47.023 -6.00906 -3.91553
46 2 -27.308 -4.85319 -3.41047
39 2 -48.9596 -2.01166 -3.72877
5 2 -27.4529 -16.539 2.57152
8 2 -28.9302 -9.10452 -0.146227
11 2 -26.072 -9.0215 4.99728
10 2 -22.9679 -9.1369 1.73646
2 2 -23.052 -11.5494 1.25697
1 1 -23.9028 -10.6375 5.52399
34 2 -43.0673 -4.61604 -0.814528
33 2 -40.2586 -1.15572 -1.32786
20 2 -37.1065 2.54758 8.79233
32 2 -37.5997 -1.40162 2.27117
22 2 -35.9541 -2.46692 5.3226
24 2 -31.5509 0.304982 3.45429
14 2 -26.8537 -4.83038 4.18291
15 2 -29.4595 -1.21698 4.46066
16 2 -32.0029 0.356151 1.10986
13 2 -24.9216 -2.37466 7.48945
9 2 -26.083 -5.96275 1.08805
17 2 -35.8958 2.46488 1.96902
18 2 -34.4271 5.01186 5.18855
31 2 -34.4121 0.470488 4.69077
29 2 -33.9457 0.564419 4.01882
19 2 -32.8475 1.81727 7.77887
12 2 -27.9002 -4.72326 5.10559
23 2 -32.2254 -1.5342 7.52611
21 2 -35.8406 -1.64139 9.88719
25 2 -31.6016 -1.77636 7.33326
26 2 -31.8626 -3.7624 11.5003
27 2 -35.0157 -0.495286 11.6304
28 2 -34.4356 2.32748 8.00473
30 2 -30.4579 1.06062 6.58141
ITEM: TIMESTEP
502000
ITEM: NUMBER OF ATOMS
50
ITEM: BOX BOUNDS pp pp pp
-5.2951200000000000e+01 5.2951200000000000e+01
-5.2951200000000000e+01 5.2951200000000000e+01
-5.2951200000000000e+01 5.2951200000000000e+01
ITEM: ATOMS id type x y z
43 2 -35.1769 -7.66694 -9.45446
50 1 -28.4967 -14.7921 -8.8832
44 2 -30.9101 -6.20707 -9.10606
49 2 -26.0049 -12.7322 -11.8961
41 2 -40.6782 -2.27583 -5.28515
42 2 -37.3596 -4.79476 -6.76722
4 2 -28.6627 -14.5794 0.0388472
37 2 -46.3324 -10.6913 -0.744064
36 2 -44.089 -6.76423 -0.270472
35 2 -42.4683 -8.62175 -4.16276
45 2 -28.2096 -5.77854 -5.46185
8 2 -30.3873 -8.70671 -0.429594
47 2 -24.0427 -7.1145 -7.17677
48 2 -25.4536 -11.3992 -7.65471
3 2 -26.3088 -11.8627 -2.5738
38 2 -46.9162 -7.33686 -3.7603
39 2 -48.8426 -3.5291 -3.43486
40 2 -44.4545 -2.48432 -3.18316
34 2 -43.3939 -4.77488 -1.9833
33 2 -39.95 -2.17045 -2.59303
46 2 -24.7935 -4.75407 -3.22353
5 2 -25.7703 -17.6486 1.49327
6 2 -26.172 -13.4637 2.59984
7 2 -28.6456 -9.64401 3.5963
11 2 -27.323 -7.31434 4.42511
10 2 -24.9354 -9.06357 1.24138
2 2 -25.5749 -13.7741 1.37686
1 1 -26.5004 -11.8998 5.34884
32 2 -37.3367 -0.878375 0.703769
22 2 -33.2611 -2.93323 7.66053
14 2 -27.0819 -2.23516 3.499
15 2 -30.9228 -0.201735 4.78857
12 2 -26.2813 -2.76359 3.71707
9 2 -27.8399 -5.58329 1.72073
17 2 -33.8448 2.79353 2.47521
18 2 -35.7742 4.26541 6.32496
31 2 -35.2094 -0.327402 4.60365
29 2 -35.28 -0.235004 5.54857
24 2 -29.5765 -0.400633 3.48772
16 2 -30.7615 0.498579 0.456141
30 2 -30.8353 -0.786109 5.74324
21 2 -34.8822 1.25344 8.05066
27 2 -35.2311 -1.3574 9.8291
23 2 -32.8279 1.35802 6.18444
25 2 -29.0132 -2.21314 7.52773
26 2 -33.158 -3.81553 6.62875
13 2 -26.1641 -1.41851 7.91219
20 2 -36.5827 3.54741 11.5217
28 2 -31.6475 0.834215 7.89969
19 2 -32.9072 2.63592 9.29439
ITEM: TIMESTEP
503000
ITEM: NUMBER OF ATOMS
50
ITEM: BOX BOUNDS pp pp pp
-5.2951200000000000e+01 5.2951200000000000e+01
-5.2951200000000000e+01 5.2951200000000000e+01
-5.2951200000000000e+01 5.2951200000000000e+01
ITEM: ATOMS id type x y z
50 1 -25.6243 -16.1583 -9.09265
43 2 -35.5321 -4.53642 -9.46212
49 2 -26.7748 -13.4526 -12.4361
47 2 -23.4301 -7.36557 -7.91382
48 2 -26.7056 -10.4327 -9.20204
42 2 -35.5933 -5.31541 -5.24397
44 2 -31.8642 -4.12672 -6.90833
38 2 -46.5568 -8.82747 -2.56058
37 2 -43.8524 -11.6687 -0.336791
36 2 -43.3325 -7.18585 -0.915007
35 2 -44.9889 -8.73749 -4.84215
8 2 -31.0507 -8.99631 1.08576
3 2 -27.7563 -12.4159 -1.69118
39 2 -46.9301 -4.70865 -3.35906
41 2 -38.817 -2.85754 -3.10746
40 2 -42.5882 -5.41749 -2.86081
34 2 -43.464 -4.75903 -3.10383
33 2 -39.3143 -3.17073 -3.2465
45 2 -27.6872 -2.97649 -5.40516
46 2 -23.9524 -5.03744 -4.00815
4 2 -29.2527 -15.7969 0.791664
5 2 -25.0203 -14.7549 1.32869
6 2 -28.2988 -14.4754 4.13522
2 2 -28.2596 -15.7226 1.25301
7 2 -32.3319 -12.244 4.08535
11 2 -28.042 -4.81882 3.13087
1 1 -29.0935 -13.27 4.88828
10 2 -26.9428 -8.60298 1.19222
32 2 -37.151 -0.385584 -0.649588
31 2 -36.237 -1.38439 3.62954
29 2 -34.5889 -0.651806 8.18315
26 2 -31.2972 -1.38254 3.70704
14 2 -27.9544 0.689002 3.00228
15 2 -31.993 0.612605 4.66193
9 2 -29.4649 -5.05625 2.62483
24 2 -28.8531 -0.889477 4.92576
30 2 -32.0156 -2.55698 4.98244
12 2 -24.9363 -1.55746 3.65147
17 2 -31.8562 3.26875 4.12648
18 2 -35.6407 2.36156 6.53132
16 2 -30.0296 1.07694 0.700661
23 2 -32.8629 1.14927 5.64333
22 2 -31.0208 2.54697 9.40575
27 2 -34.321 -3.02247 6.2647
25 2 -30.4457 -4.32513 7.10644
13 2 -27.4401 -0.857899 7.11522
21 2 -34.9062 4.17533 7.92818
20 2 -35.5798 2.04048 11.832
28 2 -30.331 -1.16327 6.82062
19 2 -32.2899 3.33717 9.26509
ITEM: TIMESTEP
504000
ITEM: NUMBER OF ATOMS
50
ITEM: BOX BOUNDS pp pp pp
-5.2951200000000000e+01 5.2951200000000000e+01
-5.2951200000000000e+01 5.2951200000000000e+01
-5.2951200000000000e+01 5.2951200000000000e+01
ITEM: ATOMS id type x y z
49 2 -27.1986 -14.2118 -11.2537
50 1 -23.2602 -16.4801 -10.3723
48 2 -27.0305 -9.88318 -11.1558
47 2 -23.7336 -8.12385 -8.57676
43 2 -35.4402 -1.40665 -6.917
44 2 -31.774 -1.73252 -4.71759
38 2 -45.2379 -9.64714 -0.867635
37 2 -41.7435 -12.4122 -0.132628
36 2 -43.1665 -8.34123 -2.1492
35 2 -46.861 -7.8697 -4.71998
3 2 -29.0497 -13.1046 -0.767811
39 2 -44.6892 -6.17676 -3.3947
40 2 -40.544 -7.53051 -2.85087
34 2 -43.1845 -5.19107 -4.53692
42 2 -34.2487 -5.26599 -4.97625
41 2 -37.3622 -4.57784 -1.54931
33 2 -39.0939 -4.08114 -3.47188
32 2 -37.1346 -0.311479 -1.63223
45 2 -27.5994 -1.52265 -5.50663
46 2 -24.5322 -4.71611 -5.48591
4 2 -28.1335 -16.4603 1.96203
6 2 -29.922 -15.4287 4.3685
2 2 -30.7422 -16.9581 0.729682
1 1 -31.5598 -14.6489 4.4865
5 2 -27.8971 -12.0184 2.36198
8 2 -32.0057 -9.75299 4.21988
7 2 -33.8154 -13.7553 3.02127
10 2 -28.5949 -7.50303 1.54996
31 2 -36.957 -2.37096 2.22804
27 2 -32.1038 -4.18369 2.01159
11 2 -27.7891 -3.02391 1.33569
26 2 -29.733 -0.993774 4.14586
9 2 -31.9269 -5.27891 3.44971
24 2 -29.4905 -1.854 6.7249
30 2 -34.18 -3.34447 5.43664
12 2 -24.4006 -1.04192 3.87278
18 2 -34.1917 0.852829 6.59918
14 2 -29.0459 3.29284 2.95057
15 2 -32.8406 1.3462 4.61461
17 2 -30.4611 2.99727 5.73994
16 2 -29.6557 2.19526 1.56668
23 2 -30.732 2.02388 8.70615
29 2 -32.0993 -1.85647 9.19234
25 2 -32.5702 -4.23066 4.49668
13 2 -28.5317 -0.193129 5.6445
28 2 -29.7417 -2.79189 5.6518
21 2 -34.7398 5.85911 9.74443
20 2 -34.7325 1.46016 10.3359
22 2 -31.0397 6.35738 7.24442
19 2 -31.7546 4.08364 8.2967
ITEM: TIMESTEP
505000
ITEM: NUMBER OF ATOMS
50
ITEM: BOX BOUNDS pp pp pp
-5.2951200000000000e+01 5.2951200000000000e+01
-5.2951200000000000e+01 5.2951200000000000e+01
-5.2951200000000000e+01 5.2951200000000000e+01
ITEM: ATOMS id type x y z
49 2 -26.0484 -14.2253 -9.48034
50 1 -22.6346 -15.373 -12.2444
48 2 -26.2657 -11.3542 -12.7293
47 2 -25.0722 -8.36078 -9.24003
43 2 -35.3902 0.193495 -2.70076
35 2 -46.5047 -7.14078 -3.5027
38 2 -43.912 -9.75467 0.762399
37 2 -40.2156 -11.5542 -1.14346
36 2 -44.0459 -10.7709 -3.40809
40 2 -38.1742 -9.47183 -2.73339
3 2 -30.2289 -14.2889 0.411198
39 2 -42.3083 -8.23894 -3.19842
34 2 -42.8439 -6.14338 -5.908
42 2 -33.7359 -3.42389 -4.64292
41 2 -35.1432 -6.45126 -1.46827
33 2 -39.1819 -4.9701 -3.62006
32 2 -37.2421 -1.07343 -1.61964
44 2 -31.0269 0.62154 -3.12124
45 2 -27.3782 -0.912868 -5.0408
46 2 -25.6345 -4.26148 -7.55624
7 2 -33.9337 -12.9431 2.65361
4 2 -26.9164 -13.6469 3.37786
6 2 -31.9053 -16.5225 4.46251
2 2 -33.3328 -17.7122 -0.0327215
1 1 -34.282 -16.246 4.15644
5 2 -31.23 -12.2878 3.21872
8 2 -34.1008 -11.0001 6.7072
10 2 -30.7702 -4.57699 2.24839
31 2 -35.9705 -3.21195 2.10591
30 2 -35.9439 -2.59482 6.52494
27 2 -27.7482 -3.03805 -0.473009
11 2 -27.1408 -2.66609 0.218969
26 2 -28.5571 -1.40288 3.63124
9 2 -33.8012 -7.52519 4.09406
25 2 -32.5639 -2.04182 5.3445
13 2 -29.3179 0.999127 3.36591
28 2 -29.1714 -4.49441 3.51971
12 2 -25.1857 -0.883653 3.754
18 2 -32.2663 0.216049 7.26782
14 2 -30.4318 5.53627 3.35512
15 2 -33.2896 2.17387 4.46978
17 2 -28.6869 2.8544 7.16042
16 2 -29.3599 3.46926 2.90607
24 2 -33.4673 1.51283 8.1262
29 2 -31.6652 -4.26976 7.07414
21 2 -33.1397 5.63961 11.1563
20 2 -34.4105 2.20328 8.70476
23 2 -29.1127 1.07541 7.34403
22 2 -32.3271 4.20363 7.04529
19 2 -31.2562 4.32776 6.35013
ITEM: TIMESTEP
506000
ITEM: NUMBER OF ATOMS
50
ITEM: BOX BOUNDS pp pp pp
-5.2951200000000000e+01 5.2951200000000000e+01
-5.2951200000000000e+01 5.2951200000000000e+01
-5.2951200000000000e+01 5.2951200000000000e+01
ITEM: ATOMS id type x y z
49 2 -23.7729 -14.116 -8.59844
50 1 -23.4765 -13.5586 -12.9919
48 2 -24.7121 -11.6467 -12.4265
47 2 -27.2088 -8.01058 -10.9526
46 2 -27.5241 -4.11035 -8.8307
2 2 -33.9122 -16.5287 0.296904
35 2 -44.7618 -7.85115 -2.56864
37 2 -40.7138 -9.91125 -2.86849
36 2 -44.641 -12.1359 -3.86448
39 2 -39.8504 -10.7821 -2.29836
40 2 -35.5595 -10.3025 -2.59519
34 2 -42.5611 -7.34818 -6.2602
42 2 -34.0567 -2.46428 -2.18043
41 2 -33.0271 -6.83861 -3.20801
33 2 -39.3303 -5.3059 -3.96887
32 2 -37.2098 -2.50991 -1.08042
45 2 -28.0681 -1.65448 -5.19377
27 2 -24.9612 -2.97275 0.60264
43 2 -33.0328 0.84364 0.859086
44 2 -30.2827 1.37926 -2.65896
1 1 -36.7912 -17.8735 3.49678
3 2 -30.4542 -15.5144 3.13119
4 2 -29.2981 -11.3933 2.35576
6 2 -34.7143 -17.173 4.24922
38 2 -42.2456 -9.7374 1.38497
7 2 -33.4244 -12.9014 3.47459
9 2 -31.8609 -8.13122 4.16118
5 2 -33.3808 -12.8691 3.85333
31 2 -34.637 -3.77198 2.27823
30 2 -34.4208 -3.24104 6.82005
10 2 -33.7939 -4.03077 3.7647
11 2 -29.7596 -4.10948 1.52745
26 2 -28.8417 -2.42303 2.88514
25 2 -30.3942 -0.265668 6.50037
28 2 -29.0233 -4.60311 0.779712
12 2 -27.3395 -0.517897 3.05635
15 2 -33.5411 2.72413 4.33462
13 2 -29.0553 3.13953 1.3826
14 2 -31.115 6.42782 3.53385
16 2 -29.5139 4.50707 4.87589
19 2 -30.838 3.51728 4.56699
8 2 -35.556 -9.94889 6.25201
29 2 -32.9664 -5.16512 2.74752
24 2 -31.4061 3.90954 7.47768
20 2 -34.0471 3.457 7.67655
18 2 -30.601 0.575743 7.80348
17 2 -26.7971 3.18495 7.90676
21 2 -31.6789 4.47567 11.3677
23 2 -33.1811 0.0050637 6.57192
22 2 -34.9325 3.76393 8.22465
ITEM: TIMESTEP
507000
ITEM: NUMBER OF ATOMS
50
ITEM: BOX BOUNDS pp pp pp
-5.2951200000000000e+01 5.2951200000000000e+01
-5.2951200000000000e+01 5.2951200000000000e+01
-5.2951200000000000e+01 5.2951200000000000e+01
ITEM: ATOMS id type x y z
49 2 -21.515 -13.4351 -9.56973
50 1 -24.6959 -11.59 -12.3558
47 2 -27.782 -7.87183 -12.616
48 2 -24.4345 -10.304 -10.7397
46 2 -29.4145 -5.07744 -9.38341
35 2 -42.901 -8.98122 -1.92802
37 2 -42.1719 -8.75098 -3.50397
36 2 -44.4655 -12.6474 -3.90433
39 2 -35.9816 -12.5361 -0.901806
34 2 -42.2694 -8.62563 -6.28321
40 2 -33.6114 -9.22111 -2.64388
41 2 -33.1455 -4.85784 -3.34148
42 2 -32.801 -4.08943 0.988287
33 2 -39.5548 -5.53632 -4.3422
32 2 -37.3899 -3.91497 -0.880914
45 2 -29.5632 -2.02791 -6.27253
44 2 -29.268 0.469753 -2.44322
2 2 -34.6406 -15.4681 3.05882
1 1 -37.5975 -18.526 1.3736
6 2 -37.3341 -16.816 3.77947
3 2 -30.8872 -14.0212 4.92607
38 2 -39.9175 -10.1072 -0.0655164
7 2 -34.505 -13.607 5.42169
5 2 -35.605 -12.8264 4.52904
8 2 -35.0311 -9.43393 4.025
4 2 -32.7239 -12.4163 1.19336
9 2 -31.448 -6.98332 4.83113
31 2 -33.1747 -4.67932 0.414
10 2 -35.6314 -5.93757 5.25422
11 2 -32.1866 -3.60124 3.61709
26 2 -29.1812 -3.38909 2.62797
25 2 -27.9697 -1.12693 6.25858
28 2 -28.817 -3.41788 -0.16257
12 2 -30.8846 -0.00236393 1.27903
29 2 -33.149 -3.485 1.28451
27 2 -25.0492 -4.64376 1.93208
15 2 -33.2737 3.25886 4.51379
23 2 -34.9923 4.11119 7.29331
43 2 -30.5535 -0.277824 1.93832
13 2 -28.7603 4.02889 0.603068
14 2 -30.854 6.93612 3.20216
16 2 -30.025 4.51102 7.43135
19 2 -30.5446 2.32291 3.68658
30 2 -30.6064 -5.93996 4.07227
20 2 -33.4516 4.63576 5.99152
22 2 -36.1572 5.42605 11.5929
24 2 -31.113 1.88556 6.18538
18 2 -29.1625 1.44535 7.80193
17 2 -25.6025 4.17912 7.78988
21 2 -32.477 3.15572 10.0959
ITEM: TIMESTEP
508000
ITEM: NUMBER OF ATOMS
50
ITEM: BOX BOUNDS pp pp pp
-5.2951200000000000e+01 5.2951200000000000e+01
-5.2951200000000000e+01 5.2951200000000000e+01
-5.2951200000000000e+01 5.2951200000000000e+01
ITEM: ATOMS id type x y z
49 2 -20.8985 -11.2122 -11.6014
47 2 -27.6458 -7.44937 -12.4554
50 1 -25.1102 -9.87208 -10.6851
48 2 -24.4653 -9.46293 -9.68251
46 2 -30.8377 -5.85978 -9.67299
35 2 -40.9458 -10.1586 -1.51116
37 2 -41.1922 -9.48631 -2.1029
36 2 -43.9573 -12.6243 -3.84312
34 2 -41.8081 -9.60607 -6.01336
38 2 -37.004 -10.8702 -3.41385
39 2 -33.9297 -11.3783 -0.276821
40 2 -32.7671 -7.57045 -2.40487
41 2 -33.5603 -3.5807 -0.777498
33 2 -39.7719 -6.00402 -4.33448
32 2 -37.1502 -5.57821 -1.02584
45 2 -31.0128 -2.23871 -6.88
28 2 -27.4625 -2.63639 0.210806
44 2 -28.6641 -2.08249 -3.0162
2 2 -36.0347 -16.1392 5.06958
1 1 -35.9197 -16.5812 0.662552
6 2 -39.1341 -15.8587 3.74516
7 2 -36.8561 -12.3421 5.43318
3 2 -33.6802 -12.2748 4.72128
5 2 -37.2619 -11.9672 5.16812
8 2 -32.8438 -11.2962 3.66623
4 2 -35.8597 -14.4573 1.61679
9 2 -31.6819 -7.05393 4.82541
10 2 -35.8758 -5.69874 5.64511
42 2 -31.0415 -5.63109 2.25594
31 2 -32.8495 -5.3688 -2.31915
11 2 -35.71 -1.37728 4.7627
26 2 -29.419 -3.41239 3.51613
25 2 -30.4782 0.568877 4.76484
29 2 -31.0001 -4.03497 2.29325
43 2 -28.2851 -2.18686 1.40501
30 2 -28.6556 -6.24528 -0.923729
27 2 -25.9934 -6.15943 2.52431
15 2 -31.999 4.33979 5.58486
20 2 -32.4 5.1733 4.67609
12 2 -34.4719 0.12894 0.81309
13 2 -30.5112 2.29891 1.27646
19 2 -30.4582 1.2483 3.59025
24 2 -33.9071 1.26643 7.55469
14 2 -29.9518 6.67231 2.41526
23 2 -30.8159 4.28269 9.3384
22 2 -34.6472 5.57576 11.1337
16 2 -29.3669 3.42866 9.22381
18 2 -28.4145 2.25406 7.39343
21 2 -34.5135 2.7941 7.89707
17 2 -26.051 5.91688 7.41083
ITEM: TIMESTEP
509000
ITEM: NUMBER OF ATOMS
50
ITEM: BOX BOUNDS pp pp pp
-5.2951200000000000e+01 5.2951200000000000e+01
-5.2951200000000000e+01 5.2951200000000000e+01
-5.2951200000000000e+01 5.2951200000000000e+01
ITEM: ATOMS id type x y z
47 2 -27.9891 -6.99806 -11.4719
49 2 -21.5417 -8.56011 -12.961
50 1 -23.9063 -8.50625 -9.44204
48 2 -24.4621 -8.88333 -9.44099
46 2 -31.9837 -5.89567 -9.73962
45 2 -31.8869 -2.88232 -6.651
35 2 -38.3958 -10.7162 -1.50368
37 2 -38.1247 -12.8863 -1.92983
36 2 -42.5429 -11.6681 -3.27983
34 2 -41.1209 -10.7273 -4.82726
38 2 -35.374 -11.1514 -5.17676
39 2 -34.4005 -9.21867 -1.32479
40 2 -32.1691 -5.39214 -1.72606
33 2 -39.8061 -6.53889 -4.14019
41 2 -33.1943 -3.51043 2.42561
32 2 -35.9424 -7.10381 -1.63596
44 2 -28.748 -4.76623 -3.91598
31 2 -33.1651 -5.96461 -4.75723
30 2 -29.5219 -4.60177 -2.67006
2 2 -36.7146 -15.9268 5.00316
1 1 -34.0423 -14.1444 1.86115
6 2 -40.5132 -14.5291 3.91183
4 2 -39.4759 -15.2536 3.89465
7 2 -37.1428 -11.7789 3.08501
3 2 -37.4319 -11.4715 4.55564
5 2 -37.4496 -11.1885 4.60259
8 2 -33.3866 -12.4648 5.43526
9 2 -33.7534 -8.06282 4.69971
10 2 -35.1507 -3.84423 5.21172
11 2 -38.6855 -1.25902 5.28694
28 2 -25.4299 -2.75447 1.04039
42 2 -29.5895 -6.31704 2.5628
26 2 -29.6224 -1.1407 4.71915
29 2 -27.3002 -6.77677 0.466452
43 2 -26.3869 -4.49255 -0.0271308
27 2 -28.4607 -5.24399 3.05095
12 2 -37.3253 0.287919 1.44736
25 2 -33.9209 -0.10507 4.89824
15 2 -29.8322 5.51689 6.41796
20 2 -31.7027 4.72944 4.28834
13 2 -33.1884 1.74004 2.46979
19 2 -30.6031 0.427187 3.95405
14 2 -29.6491 4.36525 2.06616
24 2 -32.5748 2.47589 8.00896
22 2 -32.0995 4.29942 8.27244
21 2 -35.8903 4.19035 5.91996
23 2 -29.3374 1.52411 10.6726
16 2 -27.879 3.17305 9.51324
18 2 -28.0972 2.9409 6.75058
17 2 -27.3605 7.24782 7.78255
ITEM: TIMESTEP
510000
ITEM: NUMBER OF ATOMS
50
ITEM: BOX BOUNDS pp pp pp
-5.2951200000000000e+01 5.2951200000000000e+01
-5.2951200000000000e+01 5.2951200000000000e+01
-5.2951200000000000e+01 5.2951200000000000e+01
ITEM: ATOMS id type x y z
47 2 -28.3016 -6.57158 -10.3506
49 2 -22.9177 -5.95906 -13.1859
50 1 -22.356 -7.20923 -9.10855
48 2 -24.443 -8.17507 -9.45276
46 2 -32.7718 -6.03513 -9.88825
45 2 -32.1921 -3.88143 -6.07859
36 2 -39.611 -11.701 -2.19946
34 2 -39.6277 -11.5806 -2.67688
35 2 -35.2463 -10.7271 -1.74402
37 2 -36.8656 -14.7617 -4.10973
38 2 -34.3174 -11.0295 -4.51821
39 2 -34.4617 -6.76592 -3.3812
32 2 -34.753 -8.60913 -2.95089
33 2 -39.2107 -7.35474 -3.68193
31 2 -32.4406 -5.96056 -5.53021
40 2 -32.8242 -4.1665 -0.177097
44 2 -29.037 -6.75634 -4.53031
30 2 -29.7447 -5.95023 -1.87635
43 2 -25.7397 -7.4358 -1.43655
6 2 -42.0916 -13.9342 2.98601
2 2 -37.1651 -13.5735 3.95816
1 1 -32.8129 -12.1014 3.80879
4 2 -41.4288 -13.3909 6.62451
7 2 -37.7804 -13.5153 2.35367
3 2 -39.4237 -9.83745 4.87733
5 2 -37.9056 -12.9853 3.79925
8 2 -36.0295 -11.4057 5.91632
9 2 -37.2983 -7.26249 5.382
29 2 -25.3555 -4.94126 -2.89072
41 2 -31.7649 -4.72862 4.37482
10 2 -34.9706 -3.56633 4.20732
11 2 -39.2594 -3.10797 5.32697
25 2 -34.9403 -0.568681 7.02291
42 2 -28.0456 -5.91191 2.2372
26 2 -31.12 1.16663 5.1512
27 2 -29.2937 -2.23281 2.87189
28 2 -26.7715 -5.89544 1.20438
12 2 -39.2883 0.56325 2.82447
13 2 -35.1044 1.9024 3.40539
21 2 -33.1656 4.9203 6.98181
15 2 -27.5994 5.38055 4.96308
20 2 -30.1 4.28653 3.84997
19 2 -30.2088 -0.168443 4.90559
14 2 -30.8402 2.20879 4.37064
24 2 -31.7849 2.40192 5.59736
22 2 -31.7117 0.953972 5.5476
23 2 -30.3392 1.32235 9.79696
16 2 -26.6028 3.59893 9.01536
18 2 -28.3983 3.77324 5.80241
17 2 -28.8097 7.47193 8.25873
ITEM: TIMESTEP
511000
ITEM: NUMBER OF ATOMS
50
ITEM: BOX BOUNDS pp pp pp
-5.2951200000000000e+01 5.2951200000000000e+01
-5.2951200000000000e+01 5.2951200000000000e+01
-5.2951200000000000e+01 5.2951200000000000e+01
ITEM: ATOMS id type x y z
50 1 -21.2602 -5.71775 -10.0639
48 2 -24.3296 -7.28576 -9.27746
47 2 -28.505 -6.14054 -9.33406
46 2 -33.0619 -6.09376 -10.0501
49 2 -24.5785 -3.64398 -12.1152
37 2 -34.7734 -12.9441 -5.7748
36 2 -36.4711 -12.7278 -1.70804
34 2 -36.4903 -11.5406 -0.422071
35 2 -32.4056 -10.7721 -2.29715
38 2 -34.7019 -9.67111 -2.60777
39 2 -32.9553 -5.65695 -3.4134
32 2 -34.1073 -10.169 -4.57208
33 2 -37.9995 -8.42453 -3.1544
44 2 -29.1497 -8.42121 -4.92737
43 2 -26.5296 -9.80947 -1.48731
45 2 -32.3692 -5.30784 -5.6875
31 2 -31.6574 -6.49202 -4.45997
40 2 -34.07 -5.92472 0.932119
30 2 -27.83 -6.91703 -2.35481
29 2 -27.4344 -2.77128 -0.611447
6 2 -43.0738 -13.6756 1.61024
2 2 -36.6357 -9.98245 3.14694
7 2 -39.2716 -14.5308 3.61953
3 2 -40.3984 -8.35737 4.76246
5 2 -40.2428 -14.8836 4.79964
8 2 -39.6248 -10.1297 4.67629
9 2 -39.5288 -5.75342 5.66922
1 1 -33.1732 -10.5268 5.74719
10 2 -35.6498 -5.16044 3.68844
11 2 -39.9656 -4.05588 4.73857
41 2 -30.2811 -5.97769 3.14241
42 2 -26.4497 -5.78835 0.781976
27 2 -27.9984 -1.86534 1.51091
28 2 -31.7591 -3.41778 -0.550014
19 2 -29.4421 -0.0666373 5.94553
12 2 -39.7806 0.430286 5.15487
13 2 -35.5194 1.96946 4.72062
26 2 -31.4621 -0.509355 3.96882
15 2 -28.236 1.89575 4.17418
20 2 -27.9771 3.0997 3.176
14 2 -31.7433 2.85426 6.8939
24 2 -32.1035 0.915614 3.85688
22 2 -32.4819 1.39535 3.95178
18 2 -29.1873 4.26213 4.93591
4 2 -41.0693 -11.4133 7.80938
25 2 -33.2124 0.651096 8.09783
21 2 -29.5992 2.00833 7.2477
23 2 -31.7055 1.53878 8.25767
16 2 -26.3049 4.77071 6.92507
17 2 -29.7154 6.92688 8.58062
ITEM: TIMESTEP
512000
ITEM: NUMBER OF ATOMS
50
ITEM: BOX BOUNDS pp pp pp
-5.2951200000000000e+01 5.2951200000000000e+01
-5.2951200000000000e+01 5.2951200000000000e+01
-5.2951200000000000e+01 5.2951200000000000e+01
ITEM: ATOMS id type x y z
48 2 -24.2645 -6.00874 -8.9903
47 2 -28.7559 -5.87927 -8.47056
46 2 -33.1126 -6.00086 -10.0667
50 1 -21.4081 -3.7764 -11.7291
49 2 -25.3893 -2.14929 -10.2283
37 2 -32.9396 -10.0955 -5.26486
36 2 -33.2018 -13.7437 -2.53144
34 2 -32.9209 -10.5763 0.597076
38 2 -35.1192 -8.45651 -1.67724
32 2 -33.2025 -9.8416 -5.23382
33 2 -36.4571 -10.3989 -2.32949
35 2 -29.8207 -10.6153 -2.65191
44 2 -29.2202 -9.99797 -4.98807
43 2 -27.5415 -10.9897 -0.934833
30 2 -27.5907 -4.55148 -2.1218
39 2 -31.781 -5.49748 -1.77925
45 2 -32.2803 -6.88138 -5.73464
31 2 -29.6181 -8.78192 -2.77016
29 2 -31.2732 -3.45115 0.175669
28 2 -33.4303 0.371051 -0.749347
6 2 -42.911 -13.8535 1.68326
5 2 -43.8469 -14.0546 6.04483
7 2 -41.1658 -12.815 5.6089
3 2 -40.2907 -7.77987 4.18171
2 2 -36.1467 -6.14033 3.66635
8 2 -42.8459 -9.54279 3.1188
1 1 -34.4668 -8.87845 6.81533
11 2 -40.2839 -3.86412 4.26621
40 2 -33.845 -7.94849 1.28235
9 2 -41.0945 -5.72042 5.27564
10 2 -37.2317 -7.14645 3.50153
41 2 -29.4749 -7.23867 0.892663
27 2 -30.1797 -2.61164 -0.0026974
19 2 -28.4927 0.869718 6.56519
26 2 -31.2965 -2.23176 4.32866
42 2 -25.4594 -6.70435 -1.14429
12 2 -39.4288 -0.640727 7.32564
13 2 -35.7684 1.88228 6.57907
15 2 -29.1016 0.434118 6.23164
20 2 -26.2659 1.38405 2.77536
24 2 -31.8921 -0.306367 3.34215
22 2 -30.6424 2.71323 3.54293
18 2 -29.92 4.15292 3.96146
4 2 -40.4768 -11.3031 7.18399
25 2 -30.3457 1.14888 7.29447
14 2 -31.8026 3.52209 7.7807
21 2 -29.2149 -1.74948 3.68077
23 2 -32.6632 1.72397 7.1774
16 2 -29.1123 4.43769 4.03299
17 2 -29.2776 5.77603 8.13995
ITEM: TIMESTEP
513000
ITEM: NUMBER OF ATOMS
50
ITEM: BOX BOUNDS pp pp pp
-5.2951200000000000e+01 5.2951200000000000e+01
-5.2951200000000000e+01 5.2951200000000000e+01
-5.2951200000000000e+01 5.2951200000000000e+01
ITEM: ATOMS id type x y z
47 2 -28.7259 -5.69127 -8.05334
46 2 -32.9573 -5.77139 -9.71682
48 2 -24.3468 -5.09505 -8.40404
50 1 -23.2155 -1.33147 -12.7981
49 2 -25.2252 -0.622259 -8.86614
36 2 -30.0103 -12.8158 -4.87273
38 2 -34.9083 -7.10507 -1.09925
33 2 -33.2775 -12.5281 -1.14554
37 2 -31.5115 -9.1827 -2.93642
32 2 -31.0948 -8.76808 -2.90121
35 2 -26.9906 -10.2123 -2.81403
44 2 -29.3036 -11.6129 -4.74355
43 2 -27.9759 -11.1252 -0.555301
45 2 -31.9327 -8.4954 -6.17868
31 2 -27.1424 -6.93325 -1.60038
42 2 -25.1207 -8.83667 -3.08551
30 2 -31.3476 -5.2097 -1.14856
39 2 -31.0042 -5.81597 0.259195
27 2 -32.8322 -3.29652 0.040489
28 2 -33.0699 1.13993 -0.0668215
6 2 -42.7191 -13.882 4.12601
5 2 -45.6321 -11.3439 6.31591
7 2 -43.7888 -10.3273 6.34022
3 2 -38.5792 -7.68135 4.33511
8 2 -45.4958 -9.30166 2.4426
40 2 -32.6374 -9.73127 1.3385
10 2 -39.5275 -8.35146 3.37312
34 2 -30.3517 -9.55161 -0.206089
41 2 -29.3005 -8.66289 -1.4897
11 2 -39.4073 -3.94851 4.60295
9 2 -43.2411 -6.08233 4.57688
2 2 -37.2896 -3.39002 4.99732
29 2 -35.0553 -2.63775 -1.50179
26 2 -30.4113 -3.07421 3.99071
24 2 -31.4876 -1.76185 2.99849
21 2 -29.2473 -0.774426 0.0507667
15 2 -29.4058 1.34722 7.35671
22 2 -28.3594 0.152273 4.29606
18 2 -30.4753 2.95682 2.32375
16 2 -32.6356 2.4941 4.6427
20 2 -26.1557 -1.09031 3.30101
4 2 -41.3653 -11.2318 4.83251
1 1 -36.1275 -6.91718 7.47565
12 2 -38.6366 -2.07835 8.53468
13 2 -36.1613 1.53879 8.81828
19 2 -27.4377 2.52879 5.68674
25 2 -27.8283 0.474896 4.8287
14 2 -32.7206 4.26548 8.59715
23 2 -32.395 2.0185 5.16645
17 2 -28.4039 3.54493 6.18929
ITEM: TIMESTEP
514000
ITEM: NUMBER OF ATOMS
50
ITEM: BOX BOUNDS pp pp pp
-5.2951200000000000e+01 5.2951200000000000e+01
-5.2951200000000000e+01 5.2951200000000000e+01
-5.2951200000000000e+01 5.2951200000000000e+01
ITEM: ATOMS id type x y z
47 2 -28.6408 -5.55106 -7.78615
46 2 -32.9908 -5.84404 -8.78526
48 2 -24.5922 -3.97616 -7.96169
50 1 -25.4367 0.903039 -12.733
49 2 -24.6697 0.52899 -8.32486
38 2 -33.2008 -6.72959 -1.40673
33 2 -29.6792 -12.369 -0.194188
36 2 -28.0147 -9.05676 -5.22488
37 2 -30.4897 -10.1401 -1.57814
32 2 -28.9052 -8.07849 1.14909
35 2 -23.973 -9.60875 -3.24876
44 2 -29.7001 -12.6684 -4.3325
43 2 -27.8308 -11.1058 -0.677482
45 2 -30.9867 -9.82159 -7.43795
31 2 -30.5566 -3.989 0.0573628
34 2 -28.3098 -8.33802 -2.25488
41 2 -29.5476 -10.2243 -3.28563
42 2 -25.3865 -11.22 -4.42625
29 2 -34.4752 -2.71072 -2.5806
30 2 -33.5662 -7.02547 -1.20924
21 2 -27.5788 1.26252 0.661265
28 2 -33.2497 0.311705 0.312009
6 2 -43.1566 -12.3188 7.58601
5 2 -45.0303 -8.73447 5.81982
7 2 -45.8684 -9.32955 5.98521
8 2 -47.9591 -9.17244 1.8103
4 2 -41.7955 -8.16341 2.76411
3 2 -38.2003 -7.62076 5.42304
10 2 -41.5881 -8.24446 3.50582
40 2 -30.6921 -10.8646 0.82034
9 2 -45.5369 -6.05605 4.12418
11 2 -38.5194 -5.28534 5.21206
2 2 -39.8069 -3.28271 5.39955
39 2 -30.4017 -6.61718 2.36009
27 2 -34.6879 -3.78812 1.38096
26 2 -30.0919 -3.46979 2.36089
24 2 -30.5044 -2.90776 2.87471
20 2 -28.2183 -1.50469 4.10155
22 2 -28.4211 -2.54228 2.8632
18 2 -30.8085 1.00086 0.36925
16 2 -33.4504 1.50194 6.48144
19 2 -27.0117 2.38783 2.20359
25 2 -26.3884 -0.884672 1.9899
23 2 -29.9743 1.70424 2.40077
17 2 -29.4384 0.686794 4.75842
1 1 -37.5744 -5.64281 8.48451
12 2 -37.5322 -3.05619 8.98021
13 2 -36.249 0.913758 10.9037
15 2 -29.7007 2.65671 8.70909
14 2 -33.8844 4.27755 9.24961
ITEM: TIMESTEP
515000
ITEM: NUMBER OF ATOMS
50
ITEM: BOX BOUNDS pp pp pp
-5.2951200000000000e+01 5.2951200000000000e+01
-5.2951200000000000e+01 5.2951200000000000e+01
-5.2951200000000000e+01 5.2951200000000000e+01
ITEM: ATOMS id type x y z
45 2 -30.0676 -10.5368 -8.3249
47 2 -28.378 -5.5246 -7.63609
46 2 -32.8253 -7.05641 -7.54428
48 2 -24.9629 -2.64542 -7.62548
50 1 -27.4749 2.88117 -11.5845
49 2 -24.2372 1.63545 -8.65583
38 2 -30.4012 -6.5684 -0.983597
30 2 -35.3396 -7.30869 -1.11899
33 2 -25.7213 -8.35086 0.984553
36 2 -25.78 -6.47063 -2.12835
37 2 -28.0123 -10.1739 -2.42169
44 2 -30.2253 -12.8661 -4.46966
43 2 -27.4027 -11.1474 -1.52258
34 2 -26.7295 -7.8926 -3.35025
41 2 -29.9418 -11.812 -4.34198
35 2 -22.4244 -8.19169 -4.5961
42 2 -25.982 -13.7005 -5.33373
29 2 -33.5707 -3.65319 -2.97333
8 2 -49.9169 -9.25925 2.08732
5 2 -43.4095 -7.07789 5.55725
7 2 -47.2162 -9.52925 5.50018
4 2 -41.1248 -4.79598 2.2665
10 2 -42.6592 -6.50524 4.58478
3 2 -39.532 -7.36743 5.48384
32 2 -28.8389 -5.87184 3.00827
40 2 -28.6883 -11.1242 0.0202379
39 2 -30.4087 -8.34793 2.98227
9 2 -47.0878 -6.23137 3.7231
2 2 -42.1194 -3.83513 5.96336
11 2 -38.7574 -6.88195 6.58187
27 2 -34.1115 -4.22764 2.98752
31 2 -33.1294 -6.17524 2.40615
26 2 -30.706 -3.12838 0.239061
24 2 -29.4331 -2.18671 2.38754
20 2 -29.7899 -0.0339978 4.61698
22 2 -27.1566 -3.06122 -0.561251
25 2 -26.3437 -3.08824 -0.627143
28 2 -33.5112 -0.711606 0.314928
16 2 -32.4554 0.409454 7.6267
21 2 -26.3949 0.538625 2.02996
18 2 -31.3996 -1.2849 -0.857875
19 2 -27.4496 -0.785272 0.736767
23 2 -28.2645 1.29718 -0.275004
17 2 -31.7571 -1.56774 3.52807
6 2 -45.336 -8.42708 9.44583
1 1 -39.1874 -4.3088 9.25737
12 2 -36.4671 -3.61406 8.50816
13 2 -36.3516 -0.600003 11.9385
14 2 -35.1007 3.41938 10.0998
15 2 -30.6914 3.93862 9.71968
ITEM: TIMESTEP
516000
ITEM: NUMBER OF ATOMS
50
ITEM: BOX BOUNDS pp pp pp
-5.2951200000000000e+01 5.2951200000000000e+01
-5.2951200000000000e+01 5.2951200000000000e+01
-5.2951200000000000e+01 5.2951200000000000e+01
ITEM: ATOMS id type x y z
45 2 -29.2909 -11.1642 -8.88507
46 2 -31.4723 -8.17132 -6.44263
47 2 -28.3024 -5.15798 -7.40591
48 2 -26.1307 -1.27422 -7.58289
50 1 -28.6657 4.47464 -9.64508
49 2 -24.6949 2.43427 -9.51197
42 2 -26.9053 -15.8043 -5.56149
30 2 -35.4886 -6.50609 0.634205
37 2 -24.6554 -8.46318 -3.28927
44 2 -30.6055 -12.9853 -4.96164
43 2 -26.7173 -11.7001 -3.30207
34 2 -24.9036 -6.81272 -0.656482
41 2 -30.12 -13.0694 -4.00325
40 2 -27.1434 -11.2308 -1.36186
35 2 -22.9378 -5.83978 -4.41235
29 2 -33.0196 -4.98991 -2.9252
38 2 -27.239 -7.12634 0.140078
22 2 -25.0345 -2.32537 -2.42625
18 2 -32.8889 -3.73722 0.232355
36 2 -22.4149 -6.53266 0.0252967
25 2 -28.0177 -4.99439 -2.15403
23 2 -27.0967 1.62108 -2.65086
8 2 -50.8313 -8.86891 3.23194
7 2 -47.7462 -8.89508 6.5049
5 2 -42.5627 -5.32328 6.6834
3 2 -41.3451 -7.0612 4.99447
39 2 -30.0023 -9.98889 1.9793
33 2 -26.4034 -2.79612 0.905519
9 2 -46.9151 -6.98077 3.61932
4 2 -40.941 -2.69007 3.73225
10 2 -43.8019 -4.83589 6.31522
2 2 -44.2819 -4.20181 6.81485
27 2 -31.9354 -4.28058 3.5362
31 2 -32.5717 -8.50919 3.1955
28 2 -33.7427 -1.8283 0.0574567
32 2 -29.2549 -5.85532 1.85482
26 2 -31.8647 -3.12741 -0.844218
24 2 -27.4981 -1.37976 0.611076
19 2 -28.7901 -3.74513 1.98025
17 2 -33.9971 -1.69826 4.01175
20 2 -29.3575 0.817073 2.60046
21 2 -26.3478 -2.29274 1.73564
6 2 -46.957 -4.40909 6.42208
11 2 -40.3203 -6.9527 7.72761
1 1 -41.1021 -2.88039 9.71358
12 2 -36.3128 -4.85934 7.98422
13 2 -36.4626 -2.51809 11.8224
14 2 -36.4701 1.97768 11.2029
16 2 -30.3353 -0.0261837 6.31946
15 2 -32.3756 2.75757 9.08795
ITEM: TIMESTEP
517000
ITEM: NUMBER OF ATOMS
50
ITEM: BOX BOUNDS pp pp pp
-5.2951200000000000e+01 5.2951200000000000e+01
-5.2951200000000000e+01 5.2951200000000000e+01
-5.2951200000000000e+01 5.2951200000000000e+01
ITEM: ATOMS id type x y z
45 2 -28.6455 -11.691 -9.27888
47 2 -28.5274 -4.59558 -6.75814
48 2 -27.5813 -0.34472 -7.93532
50 1 -29.0052 5.60459 -7.6617
49 2 -26.1188 3.19913 -10.0704
42 2 -27.8938 -17.0824 -5.49696
46 2 -29.2245 -8.76107 -5.84119
44 2 -30.7529 -13.2178 -5.47053
43 2 -26.367 -12.9437 -5.45937
41 2 -29.716 -13.8038 -3.10772
40 2 -25.8397 -11.7004 -3.2603
37 2 -22.7332 -6.18677 -2.84799
34 2 -24.0593 -1.61183 2.81546
29 2 -33.1286 -7.04099 -1.75334
25 2 -29.2891 -5.12777 -2.34371
26 2 -33.1095 -3.44858 -0.600144
35 2 -23.6705 -4.27017 -0.630028
22 2 -24.1061 -1.33863 -1.81203
23 2 -25.6225 1.63136 -4.80794
8 2 -50.4394 -7.93581 4.87238
7 2 -47.7991 -5.33625 7.32901
9 2 -46.1381 -7.46437 4.39205
3 2 -43.2046 -5.47661 4.29133
38 2 -24.0511 -9.41388 0.106585
39 2 -28.5367 -10.3125 0.207841
31 2 -31.2211 -9.33225 2.3888
6 2 -46.2461 -3.90945 3.43451
4 2 -40.9297 -1.74347 5.63557
10 2 -45.4766 -4.13727 7.35997
30 2 -33.8017 -5.65463 2.35034
28 2 -33.9308 -3.12206 0.38935
17 2 -34.4532 -1.52169 4.57621
18 2 -34.5561 -5.57236 2.70361
27 2 -30.019 -3.68781 2.56136
32 2 -29.0682 -6.0855 -0.01018
24 2 -25.7543 -2.40837 -2.73688
19 2 -30.3935 -3.62731 3.34494
16 2 -30.5514 0.268321 5.15304
36 2 -19.5749 -6.06204 0.115198