# LAMMPS data file written by python

50 atoms
2 atom types
49 bonds
1 bond types

-52.9512 52.9512 xlo xhi
-52.9512 52.9512 ylo yhi
-52.9512 52.9512 zlo zhi


Masses

1 72  # E
2 72  # C

Atoms  # full

1 1 1 0.0 0.000000 0.000000 0.000000
2 1 2 0.0 -3.106477 3.171294 0.736682
3 1 2 0.0 -5.342395 0.418506 3.506669
4 1 2 0.0 -7.150020 2.065133 7.284381
5 1 2 0.0 -10.990662 -0.242701 7.700756
6 1 2 0.0 -9.422577 2.997285 10.401422
7 1 2 0.0 -11.701078 2.485058 14.247987
8 1 2 0.0 -16.155475 3.076848 14.489085
9 1 2 0.0 -12.319690 4.827059 16.061825
10 1 2 0.0 -11.998095 8.516585 13.505660
11 1 2 0.0 -16.074458 8.145399 11.636039
12 1 2 0.0 -20.006394 8.055712 9.449299
13 1 2 0.0 -24.115364 8.877545 7.808886
14 1 2 0.0 -23.380789 4.909976 5.816704
15 1 2 0.0 -26.169186 3.971324 2.411740
16 1 2 0.0 -24.071150 0.540925 0.391689
17 1 2 0.0 -26.459882 3.299107 -2.242013
18 1 2 0.0 -26.994802 -0.866572 -3.857866
19 1 2 0.0 -29.326061 -4.046224 -6.026978
20 1 2 0.0 -32.154504 -5.620895 -2.901227
21 1 2 0.0 -36.408494 -5.281284 -4.328895
22 1 2 0.0 -39.480732 -6.420229 -1.244393
23 1 2 0.0 -43.692303 -5.053018 -0.442267
24 1 2 0.0 -39.996401 -7.545254 0.173418
25 1 2 0.0 -37.978313 -11.079392 2.093622
26 1 2 0.0 -41.124678 -13.732706 3.913049
27 1 2 0.0 -37.017769 -15.542930 4.239220
28 1 2 0.0 -40.052364 -12.412007 3.126317
29 1 2 0.0 -35.810490 -11.004135 3.650150
30 1 2 0.0 -40.049360 -9.966536 4.748044
31 1 2 0.0 -41.968635 -5.924909 5.229328
32 1 2 0.0 -43.086267 -3.903125 1.367555
33 1 2 0.0 -47.430467 -3.789074 0.199255
34 1 2 0.0 -49.006782 -1.090599 -3.038562
35 1 2 0.0 -44.798484 -2.516443 -3.750740
36 1 2 0.0 -47.410746 -5.780555 -2.085910
37 1 2 0.0 -51.783645 -6.414030 -2.938243
38 1 2 0.0 -50.270773 -10.129708 -4.976613
39 1 2 0.0 -52.951212 -13.403068 -3.443525
40 1 2 0.0 -52.306964 -16.728278 -6.406281
41 1 2 0.0 -48.264487 -17.622511 -4.643122
42 1 2 0.0 -52.146669 -18.787544 -6.597952
43 1 2 0.0 -47.980665 -17.100550 -6.377820
44 1 2 0.0 -43.686028 -15.853110 -6.877811
45 1 2 0.0 -43.724583 -17.106242 -2.555986
46 1 2 0.0 -42.350734 -13.598468 -5.017298
47 1 2 0.0 -40.245132 -9.708351 -5.843999
48 1 2 0.0 -36.947470 -7.057772 -4.311076
49 1 2 0.0 -36.195162 -8.275260 -8.577428
50 1 1 0.0 -33.167183 -11.561883 -8.048799

Bonds

1 1 1 2
2 1 2 3
3 1 3 4
4 1 4 5
5 1 5 6
6 1 6 7
7 1 7 8
8 1 8 9
9 1 9 10
10 1 10 11
11 1 11 12
12 1 12 13
13 1 13 14
14 1 14 15
15 1 15 16
16 1 16 17
17 1 17 18
18 1 18 19
19 1 19 20
20 1 20 21
21 1 21 22
22 1 22 23
23 1 23 24
24 1 24 25
25 1 25 26
26 1 26 27
27 1 27 28
28 1 28 29
29 1 29 30
30 1 30 31
31 1 31 32
32 1 32 33
33 1 33 34
34 1 34 35
35 1 35 36
36 1 36 37
37 1 37 38
38 1 38 39
39 1 39 40
40 1 40 41
41 1 41 42
42 1 42 43
43 1 43 44
44 1 44 45
45 1 45 46
46 1 46 47
47 1 47 48
48 1 48 49
49 1 49 50
