LAMMPS data file via write_data, version 29 Aug 2024, timestep = 1500019, units = real

50 atoms
2 atom types
49 bonds
1 bond types

-52.9512 52.9512 xlo xhi
-52.9512 52.9512 ylo yhi
-52.9512 52.9512 zlo zhi

Masses

1 72
2 72

Pair Coeffs # lj/cut

1 0 5.1
2 0 5.1

Bond Coeffs # harmonic

1 27.486 4.48

Atoms # full

6 1 2 0 -26.77817687804094 -8.491460131173834 -6.873583150501383 0 0 0
38 1 2 0 -38.1160925947161 -0.5252433679341632 -8.091655660652352 0 0 0
39 1 2 0 -39.93251981133865 3.2223997959610013 -6.728577382961036 0 0 0
7 1 2 0 -23.0585118110631 -10.148444749443206 -4.5754109931346765 0 0 0
8 1 2 0 -25.082079291077765 -6.990833951332393 -2.2867181181158167 0 0 0
4 1 2 0 -21.297147957310013 -9.789925442007329 -2.8838981822414462 0 0 0
12 1 2 0 -20.970031208967363 -10.843029978066992 -2.0358774053208823 0 0 0
13 1 2 0 -24.46027381143363 -8.021454448794733 -3.0054315142804673 0 0 0
5 1 2 0 -24.427170442642876 -11.911422564718023 -5.41290005473736 0 0 0
9 1 2 0 -20.440761952845655 -7.519363924279967 -2.5702169199625122 0 0 0
2 1 2 0 -21.42490920864206 -12.529141666930041 -0.585570092240141 0 0 0
10 1 2 0 -18.837111252130676 -9.182047852030852 -6.323598401529082 0 0 0
11 1 2 0 -17.948045668039263 -13.050942951416337 -4.544779171842629 0 0 0
36 1 2 0 -36.47385347187537 -4.399323650426332 -1.8217216189158811 0 0 0
37 1 2 0 -39.66249413424279 -3.171541421693908 -4.94959625654988 0 0 0
40 1 2 0 -42.77978226101837 2.764876461634507 -2.9998080640312406 0 0 0
42 1 2 0 -43.09058512395207 2.4879008385782178 -3.04983539343692 0 0 0
43 1 2 0 -38.950394385187764 4.058194885549022 -2.333209792232459 0 0 0
50 1 1 0 -51.50272234517349 10.51504707411926 -0.30721296763476813 0 0 0
48 1 2 0 -42.92983891328822 9.358171528521046 -0.10320284307836931 0 0 0
45 1 2 0 -38.94964025437457 10.260844140441344 -0.03685905997506358 0 0 0
20 1 2 0 -36.06499029516972 -14.034169337783247 4.027662613654481 0 0 0
21 1 2 0 -32.696912876759164 -16.766061858078828 4.963802209713514 0 0 0
22 1 2 0 -31.108910758020293 -14.800724642654071 1.1227586767520406 0 0 0
19 1 2 0 -34.69722266924238 -10.626760809251264 6.617280741646147 0 0 0
17 1 2 0 -35.20770940736491 -9.259281661480951 5.488138887333336 0 0 0
32 1 2 0 -39.31019288820925 -7.674040253807887 6.322687659970884 0 0 0
23 1 2 0 -29.500018262353198 -11.43251626809469 3.695880032338744 0 0 0
16 1 2 0 -31.330634955084548 -7.14131567419867 4.854188964305005 0 0 0
28 1 2 0 -33.082402447411035 -11.147686310862625 5.337641409058053 0 0 0
24 1 2 0 -30.566625327323 -7.090166206294864 3.623061002357039 0 0 0
25 1 2 0 -27.940904375194684 -10.832234061458951 3.1120951852966248 0 0 0
15 1 2 0 -27.471850776316586 -9.264980584935559 4.897118858947274 0 0 0
27 1 2 0 -29.279516615907315 -9.62961085133117 3.547226427251466 0 0 0
3 1 2 0 -24.37869962115466 -9.387889881246199 0.5590366731122465 0 0 0
1 1 1 0 -22.873385199400715 -12.83867296603777 3.460962805412698 0 0 0
14 1 2 0 -26.030464460608428 -9.998406143324285 0.7874216428257689 0 0 0
35 1 2 0 -39.57168245623722 -3.9428388850156537 1.368094434772156 0 0 0
33 1 2 0 -38.8975152834415 -3.905268767937507 3.9989908725499763 0 0 0
41 1 2 0 -43.95996305937766 4.039190805081627 1.0574242965020215 0 0 0
44 1 2 0 -39.1408531143981 6.0141590283701065 1.6694915334229836 0 0 0
34 1 2 0 -39.38183265959236 0.3489455703049841 2.3045355272216397 0 0 0
49 1 2 0 -47.35339471411224 8.981702585486 1.3937206116171772 0 0 0
47 1 2 0 -38.935623908772314 10.699974109126861 1.2082397247084604 0 0 0
46 1 2 0 -34.86598674276655 12.191589997631677 0.371770902704246 0 0 0
18 1 2 0 -35.132591828313814 -7.482923708603124 9.592297888868254 0 0 0
29 1 2 0 -31.78694485360179 -8.719832159525923 8.96027855517664 0 0 0
26 1 2 0 -29.290290861104644 -11.935863246734979 7.173358951405107 0 0 0
31 1 2 0 -35.68816096011386 -6.141547906631703 8.338056330640622 0 0 0
30 1 2 0 -31.615063244857076 -4.1234859638449075 9.320224728489334 0 0 0

Velocities

6 -0.0012498201357274985 -0.0021821884141118137 0.00025897221840670624
38 -0.0002184097067259223 0.0009735065680444434 0.0025082353589794396
39 -0.001611545054359232 0.00025584913600314917 -0.0021338485723740495
7 -0.0014677478956183286 0.0011285180715952343 0.0012220136945006376
8 -0.0007782266849025518 -0.00020529481949924347 -0.0001577593564053591
4 -0.0018536707939891415 1.90461242794881e-05 -0.0028732736867783347
12 0.0008234549273166983 8.846047100207914e-06 0.002252144571094497
13 0.00459243095999827 8.030473618340206e-05 0.004817047509323082
5 0.00038189619703937777 -0.0005781112700183722 0.0007264933836528911
9 0.0037860849969939456 -0.002758050765414434 0.002048033377635331
2 -0.0008129331920181865 -0.0008113288904943847 -0.0007630937677488766
10 0.0012232746017036538 0.001881276972633651 0.0009817944348282583
11 -0.0027085724619192743 -0.0027881503573618563 -0.0006680200146583768
36 0.0014337100999200607 -0.0019431842184708292 -0.0032196901648893477
37 -0.0011603424037530889 1.5239750884704534e-05 8.625906744136736e-06
40 0.002507825304986974 -0.0004458608192066249 -0.00044209003400354544
42 0.0021610832860973323 0.0008152689768218766 0.001719092242326749
43 -0.00112465929020834 0.0013011088003215127 0.004670268303874255
50 0.0009807400725384712 -0.0026793997039112182 -0.001607174024404967
48 -4.30616162559241e-05 -0.0014446934834962432 0.001345569263761923
45 -0.0027245132998270027 -0.0034813838203212053 -0.003513352013420593
20 0.000492774574407829 0.0010798157593230194 0.0011795256082345138
21 0.0009612073807644334 -0.0003936344285446728 -0.000998442035031234
22 -0.0005245056244420911 -0.00011392957153147494 -0.00044232230726673835
19 -0.00259018548845023 -0.0008717175850791021 -0.00021647214894923174
17 0.00015026353266981687 0.0001505794980983291 0.0010293827490561642
32 -0.0045950515942869054 -0.0006455433069027685 -0.002624194220665346
23 0.00013223856414938724 0.000972414047476012 -0.00043753157998762906
16 0.0008227524683719083 -9.386875953164728e-05 -0.0009737692065280506
28 -0.0033713173546769124 0.0002688646721017671 0.0017794752679353746
24 0.00010521316778675484 -8.542163958307778e-05 -0.0007540696087992045
25 0.0013685794994890562 0.0019575180325287866 -0.001520529947710738
15 0.0002623818293744288 -0.0018802352940191969 -0.0026104702612118713
27 0.002036311366420475 -0.0013449878969247731 -0.0034702651373657682
3 0.0013365199229047671 0.0013058641727799753 0.000918402039707869
1 0.001900606796420952 0.0011618886247573746 0.0004017603969100127
14 -0.0012167111049344956 -4.181227822892284e-05 -0.0022329818258500196
35 -0.000988142080572779 0.00279326411153618 -0.0004813200089144316
33 0.0004368500737639818 -0.000580382570953839 0.001043589570797143
41 -0.003177216422201262 -0.0008119116529615339 -0.00016803958151997682
44 -0.0010001311181736378 0.003307905218144746 -0.0008054918411940643
34 0.0033322506467187924 0.0027846209087255373 0.0009733109192294169
49 0.0010348549046284088 0.001459422098754043 0.003106011828502661
47 -0.001536539793544213 -0.00017134187684533659 0.0017784871147169445
46 0.0005887834007300728 -0.0007056184815912612 -0.0005902161308899261
18 0.0021594639342562955 -0.0003330798537170316 0.0009896821011252557
29 0.002297545423857411 0.0031759607900935806 0.0004788525049642165
26 -0.001783835021828714 -0.0018034333752738787 0.00027620187955412073
31 -0.00021542467411354656 -0.0019629050895491125 -0.0015946189511225784
30 -0.0005565353977960549 0.004260387200300657 -0.0012139359406184629

Bonds

1 1 6 7
2 1 38 39
3 1 39 40
4 1 7 8
5 1 8 9
6 1 4 5
7 1 12 13
8 1 13 14
9 1 5 6
10 1 9 10
11 1 2 3
12 1 10 11
13 1 11 12
14 1 36 37
15 1 37 38
16 1 40 41
17 1 42 43
18 1 43 44
19 1 48 49
20 1 45 46
21 1 20 21
22 1 21 22
23 1 22 23
24 1 19 20
25 1 17 18
26 1 32 33
27 1 23 24
28 1 16 17
29 1 28 29
30 1 24 25
31 1 25 26
32 1 15 16
33 1 27 28
34 1 3 4
35 1 1 2
36 1 14 15
37 1 35 36
38 1 33 34
39 1 41 42
40 1 44 45
41 1 34 35
42 1 49 50
43 1 47 48
44 1 46 47
45 1 18 19
46 1 29 30
47 1 26 27
48 1 31 32
49 1 30 31
