# LAMMPS data file written by python

400 atoms
2 atom types
399 bonds
1 bond types

-95.5344 95.5344 xlo xhi
-95.5344 95.5344 ylo yhi
-95.5344 95.5344 zlo zhi


Masses

1 72  # E
2 72  # C

Atoms  # full

1 1 1 0.0 0.000000 0.000000 0.000000
2 1 2 0.0 3.865352 -1.245979 -1.938192
3 1 2 0.0 8.347641 -1.299233 -1.542903
4 1 2 0.0 7.389440 -0.870063 -5.918707
5 1 2 0.0 8.208826 2.452940 -2.997020
6 1 2 0.0 5.064687 0.272759 -5.365818
7 1 2 0.0 8.402139 -1.190795 -8.005783
8 1 2 0.0 4.718520 -0.732017 -10.549496
9 1 2 0.0 8.293762 1.445997 -12.199921
10 1 2 0.0 4.238644 2.321442 -10.456471
11 1 2 0.0 2.498248 3.669452 -6.531691
12 1 2 0.0 3.735477 -0.582796 -7.330225
13 1 2 0.0 6.974514 0.281553 -10.332147
14 1 2 0.0 7.569786 4.595308 -9.197612
15 1 2 0.0 3.459502 6.242050 -9.999988
16 1 2 0.0 7.658197 5.504301 -8.558917
17 1 2 0.0 8.241779 3.083816 -4.810493
18 1 2 0.0 3.890015 2.442457 -5.759600
19 1 2 0.0 7.435386 3.643303 -3.261939
20 1 2 0.0 9.977201 7.252611 -2.388970
21 1 2 0.0 7.701763 3.845011 -0.528691
22 1 2 0.0 12.168721 3.585879 -1.007369
23 1 2 0.0 12.982261 2.492459 -5.296026
24 1 2 0.0 12.984501 0.976611 -9.533030
25 1 2 0.0 17.467534 1.027561 -9.920093
26 1 2 0.0 14.020814 3.330597 -8.169052
27 1 2 0.0 10.500208 6.080858 -8.708865
28 1 2 0.0 11.790552 10.319801 -7.923774
29 1 2 0.0 9.359141 14.093851 -7.615890
30 1 2 0.0 9.092406 14.474286 -3.139941
31 1 2 0.0 6.201543 11.317932 -4.529310
32 1 2 0.0 2.697658 11.271891 -1.706073
33 1 2 0.0 3.104292 11.603946 2.763198
34 1 2 0.0 7.603463 11.671260 2.817276
35 1 2 0.0 9.447397 15.663068 3.774030
36 1 2 0.0 5.723941 13.515057 5.105164
37 1 2 0.0 6.177620 14.089537 9.545226
38 1 2 0.0 7.570343 9.893826 8.704792
39 1 2 0.0 3.216153 10.971581 9.064620
40 1 2 0.0 7.586763 10.748428 8.016779
41 1 2 0.0 9.403835 13.924427 5.397375
42 1 2 0.0 12.930649 12.123777 7.534953
43 1 2 0.0 17.162986 10.606372 7.348400
44 1 2 0.0 21.471717 10.300219 6.087010
45 1 2 0.0 17.105528 9.667511 6.973618
46 1 2 0.0 12.834232 8.624093 6.015856
47 1 2 0.0 14.014045 5.992165 9.469984
48 1 2 0.0 17.684674 6.880745 11.916798
49 1 2 0.0 15.116210 7.566559 8.286006
50 1 2 0.0 11.622047 9.903778 6.680320
51 1 2 0.0 7.154204 9.432007 6.936846
52 1 2 0.0 3.449920 11.775631 7.954544
53 1 2 0.0 5.508570 14.064746 4.672485
54 1 2 0.0 9.331714 15.740119 6.353763
55 1 2 0.0 13.511593 15.026226 4.847456
56 1 2 0.0 15.113426 15.556400 9.019152
57 1 2 0.0 18.448986 17.551684 6.751360
58 1 2 0.0 22.645068 19.076061 6.186402
59 1 2 0.0 26.960385 17.801545 6.246756
60 1 2 0.0 31.460076 17.749005 6.251807
61 1 2 0.0 31.724427 22.136030 7.218311
62 1 2 0.0 27.553534 21.108272 5.877653
63 1 2 0.0 25.160169 20.265434 9.594026
64 1 2 0.0 21.478463 19.635111 7.084499
65 1 2 0.0 25.711302 21.101151 6.655778
66 1 2 0.0 21.498308 22.676625 6.792046
67 1 2 0.0 20.208018 24.337778 10.770202
68 1 2 0.0 20.026218 25.159407 15.190821
69 1 2 0.0 15.527645 25.266803 15.227007
70 1 2 0.0 12.077647 27.920077 14.083481
71 1 2 0.0 15.969121 28.308588 16.309575
72 1 2 0.0 18.928225 31.290699 17.922248
73 1 2 0.0 17.989222 34.655295 15.085389
74 1 2 0.0 13.762141 36.198248 15.118310
75 1 2 0.0 9.892890 37.349139 17.106864
76 1 2 0.0 12.205305 41.121524 17.926525
77 1 2 0.0 16.639187 40.948643 17.177661
78 1 2 0.0 13.919638 37.511873 16.156555
79 1 2 0.0 15.101424 38.604929 11.954340
80 1 2 0.0 17.961038 36.253220 14.512088
81 1 2 0.0 17.805872 38.473105 10.600818
82 1 2 0.0 16.028319 42.300933 9.039396
83 1 2 0.0 16.549972 40.715476 4.860377
84 1 2 0.0 20.537899 40.097215 2.869349
85 1 2 0.0 19.727263 43.600437 0.163742
86 1 2 0.0 23.823954 42.686580 -1.458599
87 1 2 0.0 19.845865 41.941483 -3.425739
88 1 2 0.0 17.744521 39.824608 -0.056290
89 1 2 0.0 21.427926 37.423478 -1.013945
90 1 2 0.0 21.975027 36.409687 -5.363992
91 1 2 0.0 26.218279 36.375907 -6.861882
92 1 2 0.0 22.005341 37.568816 -5.823553
93 1 2 0.0 21.086678 33.196487 -5.286153
94 1 2 0.0 25.031726 35.013958 -6.462333
95 1 2 0.0 24.838173 35.343393 -1.978584
96 1 2 0.0 21.178445 37.896696 -2.559132
97 1 2 0.0 17.061093 38.372248 -4.311634
98 1 2 0.0 17.513187 36.547777 -0.223001
99 1 2 0.0 21.677388 34.949887 -0.819800
100 1 2 0.0 18.945345 33.636651 2.506061
101 1 2 0.0 23.436665 33.669250 2.228596
102 1 2 0.0 19.411964 33.404857 0.233132
103 1 2 0.0 22.904939 35.498403 2.147861
104 1 2 0.0 18.861613 36.535147 3.829134
105 1 2 0.0 19.815884 40.876237 4.532197
106 1 2 0.0 15.587356 40.882790 6.071518
107 1 2 0.0 11.297489 42.065660 6.740745
108 1 2 0.0 15.622524 40.922403 6.253875
109 1 2 0.0 13.740452 42.454014 10.043594
110 1 2 0.0 9.373571 43.232018 9.285271
111 1 2 0.0 8.527813 38.812220 9.276365
112 1 2 0.0 12.505686 37.102840 8.049767
113 1 2 0.0 16.353571 39.354664 8.660558
114 1 2 0.0 12.039975 40.449079 9.327749
115 1 2 0.0 7.877061 41.812059 8.297005
116 1 2 0.0 11.137410 39.181167 6.654284
117 1 2 0.0 15.634385 39.046553 6.749654
118 1 2 0.0 13.377692 42.466083 8.610878
119 1 2 0.0 8.990039 43.462332 8.533498
120 1 2 0.0 5.365973 45.054792 6.393353
121 1 2 0.0 5.597308 44.187100 1.983864
122 1 2 0.0 10.050283 44.021250 2.611161
123 1 2 0.0 5.632049 44.318153 3.411820
124 1 2 0.0 8.621030 41.021397 4.080695
125 1 2 0.0 6.262577 42.362631 0.490598
126 1 2 0.0 5.300024 46.593150 -0.703638
127 1 2 0.0 0.807719 46.855509 -0.722911
128 1 2 0.0 5.125627 46.628170 -1.969504
129 1 2 0.0 4.444321 43.173479 0.832448
130 1 2 0.0 7.604417 44.522208 -2.073533
131 1 2 0.0 11.359138 46.172484 -0.221869
132 1 2 0.0 7.948073 46.754968 -3.098559
133 1 2 0.0 9.111623 43.532746 -0.180781
134 1 2 0.0 9.057098 39.132730 -1.122528
135 1 2 0.0 6.126010 41.516939 1.321703
136 1 2 0.0 8.384370 45.406048 1.164742
137 1 2 0.0 6.574666 48.622257 -1.410325
138 1 2 0.0 10.464598 48.963284 0.826220
139 1 2 0.0 14.856206 48.048347 1.182124
140 1 2 0.0 18.704098 49.059289 -0.920666
141 1 2 0.0 21.899159 47.152127 1.610009
142 1 2 0.0 18.888085 46.442530 4.878021
143 1 2 0.0 20.713076 48.545525 1.342937
144 1 2 0.0 22.630240 45.455763 -1.308073
145 1 2 0.0 22.781736 47.395216 2.749707
146 1 2 0.0 27.259350 47.718698 3.060077
147 1 2 0.0 23.134795 46.578894 1.667635
148 1 2 0.0 27.621599 46.654607 1.331698
149 1 2 0.0 29.451268 49.869978 3.893670
150 1 2 0.0 26.044021 50.263744 0.980661
151 1 2 0.0 29.036273 48.607377 3.905191
152 1 2 0.0 26.002217 45.336288 3.318263
153 1 2 0.0 26.931395 41.069646 2.230885
154 1 2 0.0 24.615848 44.907923 1.836077
155 1 2 0.0 25.065913 42.370388 -1.852874
156 1 2 0.0 28.098370 39.074854 -2.292948
157 1 2 0.0 24.740790 41.705004 -0.858037
158 1 2 0.0 25.366016 40.764697 3.497984
159 1 2 0.0 25.895894 44.115281 0.541158
160 1 2 0.0 22.430408 46.708674 1.771896
161 1 2 0.0 21.793556 50.225159 -0.962835
162 1 2 0.0 21.197764 49.968381 -5.415822
163 1 2 0.0 21.314660 54.262374 -6.756702
164 1 2 0.0 19.404351 58.193906 -5.687228
165 1 2 0.0 23.842983 58.515773 -6.354278
166 1 2 0.0 20.627152 57.165539 -9.197744
167 1 2 0.0 25.124396 57.165269 -9.355238
168 1 2 0.0 21.897634 59.572977 -11.365450
169 1 2 0.0 25.528594 60.349238 -8.823100
170 1 2 0.0 27.967338 61.878511 -12.281981
171 1 2 0.0 23.688119 61.963041 -13.671637
172 1 2 0.0 23.363162 61.690582 -18.151612
173 1 2 0.0 26.809169 63.055175 -15.599569
174 1 2 0.0 25.842159 63.095432 -11.204882
175 1 2 0.0 26.464631 67.293240 -12.701858
176 1 2 0.0 27.995068 71.523799 -12.601175
177 1 2 0.0 24.805329 71.183558 -15.757090
178 1 2 0.0 27.446026 68.074761 -17.657642
179 1 2 0.0 29.270799 64.202846 -19.046339
180 1 2 0.0 24.770893 64.173721 -19.047036
181 1 2 0.0 28.552346 66.190402 -17.674587
182 1 2 0.0 33.043414 66.467416 -17.614825
183 1 2 0.0 31.577819 63.121633 -20.243088
184 1 2 0.0 31.868167 58.647369 -19.860122
185 1 2 0.0 34.321372 61.900131 -17.949278
186 1 2 0.0 36.540560 65.715022 -18.827809
187 1 2 0.0 36.877159 61.227799 -18.866935
188 1 2 0.0 40.317078 64.038991 -19.583978
189 1 2 0.0 42.671589 61.634331 -22.571266
190 1 2 0.0 47.027329 62.150749 -23.576669
191 1 2 0.0 45.841493 65.799446 -21.224903
192 1 2 0.0 44.008075 66.628286 -25.250025
193 1 2 0.0 41.258764 70.161840 -25.703116
194 1 2 0.0 37.261947 68.123767 -25.354248
195 1 2 0.0 41.755169 68.370633 -25.358068
196 1 2 0.0 38.570208 67.918272 -22.211420
197 1 2 0.0 42.935632 67.687618 -23.279066
198 1 2 0.0 45.914502 69.000322 -26.386016
199 1 2 0.0 50.292124 68.027316 -26.759760
200 1 2 0.0 54.756871 68.227961 -26.234620
201 1 2 0.0 58.856949 66.383384 -26.426709
202 1 2 0.0 60.122964 70.323436 -24.659452
203 1 2 0.0 55.623593 70.365092 -24.596782
204 1 2 0.0 55.141772 73.055672 -28.171502
205 1 2 0.0 57.338588 70.994179 -31.514292
206 1 2 0.0 53.425400 72.602371 -29.981102
207 1 2 0.0 50.108330 75.624776 -30.315951
208 1 2 0.0 53.939085 74.772026 -28.114103
209 1 2 0.0 49.442145 74.894734 -28.002406
210 1 2 0.0 44.965684 74.774050 -28.445945
211 1 2 0.0 44.929807 76.403197 -24.251354
212 1 2 0.0 44.384100 72.058361 -25.287986
213 1 2 0.0 48.859570 72.134940 -24.825055
214 1 2 0.0 53.291579 72.779084 -25.263660
215 1 2 0.0 48.919448 73.566041 -25.981414
216 1 2 0.0 44.488581 73.970894 -25.307985
217 1 2 0.0 46.848585 76.426488 -28.249148
218 1 2 0.0 45.944774 77.340449 -32.561665
219 1 2 0.0 50.184251 78.758626 -32.046300
220 1 2 0.0 54.050972 78.530562 -34.336816
221 1 2 0.0 56.245472 79.431959 -30.512989
222 1 2 0.0 59.472613 77.395708 -32.898202
223 1 2 0.0 58.667875 76.558771 -37.245837
224 1 2 0.0 56.183253 73.564063 -39.506009
225 1 2 0.0 51.995387 72.043587 -38.873608
226 1 2 0.0 51.393912 75.234902 -35.758526
227 1 2 0.0 51.182540 71.102086 -37.526338
228 1 2 0.0 49.166646 74.634012 -39.452908
229 1 2 0.0 45.839350 76.067653 -36.783868
230 1 2 0.0 42.260281 75.095383 -39.332387
231 1 2 0.0 40.483052 72.303937 -42.381862
232 1 2 0.0 37.338979 69.791596 -40.368669
233 1 2 0.0 39.303610 73.447943 -38.630465
234 1 2 0.0 40.115940 73.791182 -43.043209
235 1 2 0.0 36.564615 74.509531 -45.711929
236 1 2 0.0 32.904025 73.151110 -47.949064
237 1 2 0.0 30.529750 70.328118 -50.526569
238 1 2 0.0 34.868278 71.521463 -50.582249
239 1 2 0.0 31.513384 73.652593 -52.692455
240 1 2 0.0 29.604823 72.660505 -56.645069
241 1 2 0.0 26.930711 69.237087 -57.819519
242 1 2 0.0 23.634180 71.246947 -55.507950
243 1 2 0.0 26.566038 74.474778 -54.396504
244 1 2 0.0 30.360181 72.089225 -54.801003
245 1 2 0.0 30.657472 74.763997 -51.194452
246 1 2 0.0 34.835828 74.909395 -49.530058
247 1 2 0.0 38.685212 76.168332 -47.568601
248 1 2 0.0 34.402126 74.970278 -46.883155
249 1 2 0.0 34.133828 71.644624 -49.902764
250 1 2 0.0 33.388790 75.627545 -47.945404
251 1 2 0.0 37.852855 75.192424 -47.580995
252 1 2 0.0 42.137850 73.819753 -47.513265
253 1 2 0.0 41.146291 71.645339 -43.700296
254 1 2 0.0 41.835616 76.075144 -43.310868
255 1 2 0.0 41.012625 72.712422 -46.185722
256 1 2 0.0 45.347776 73.899308 -45.967170
257 1 2 0.0 41.412084 75.251343 -47.679573
258 1 2 0.0 41.640787 79.636701 -46.696552
259 1 2 0.0 41.665926 75.193405 -45.984876
260 1 2 0.0 45.438956 73.975254 -48.113339
261 1 2 0.0 44.984252 69.624211 -49.167698
262 1 2 0.0 48.489115 70.755330 -46.581870
263 1 2 0.0 44.518103 71.961316 -44.842140
264 1 2 0.0 40.758095 70.835902 -47.043455
265 1 2 0.0 44.904016 71.974131 -45.714631
266 1 2 0.0 46.415511 76.199263 -45.377515
267 1 2 0.0 42.088689 77.200994 -44.652850
268 1 2 0.0 46.429472 78.304706 -45.088077
269 1 2 0.0 42.598852 76.583030 -43.471852
270 1 2 0.0 43.431085 77.491904 -39.143880
271 1 2 0.0 42.428272 76.769329 -43.470802
272 1 2 0.0 43.268108 72.886661 -45.584938
273 1 2 0.0 40.951574 69.742244 -47.820180
274 1 2 0.0 37.358026 71.004893 -45.423905
275 1 2 0.0 36.631997 72.888668 -41.402180
276 1 2 0.0 32.360070 71.600435 -41.986213
277 1 2 0.0 27.876507 71.251484 -41.825286
278 1 2 0.0 24.848750 68.168357 -43.081078
279 1 2 0.0 23.429171 70.534445 -39.526303
280 1 2 0.0 27.456637 69.586798 -41.295902
281 1 2 0.0 30.059281 72.222474 -43.851182
282 1 2 0.0 25.569328 71.942308 -43.959957
283 1 2 0.0 29.152195 71.469997 -46.641372
284 1 2 0.0 28.776186 74.322638 -43.181451
285 1 2 0.0 33.087155 73.041881 -43.340202
286 1 2 0.0 34.885093 68.917000 -43.392901
287 1 2 0.0 39.378249 69.157270 -43.454707
288 1 2 0.0 38.644620 73.173070 -41.561261
289 1 2 0.0 43.047769 73.818057 -42.229298
290 1 2 0.0 42.557233 76.487995 -38.640313
291 1 2 0.0 44.878882 74.512604 -41.950567
292 1 2 0.0 41.340207 73.045277 -44.311654
293 1 2 0.0 43.127944 76.079643 -47.112836
294 1 2 0.0 40.582533 77.377874 -50.589254
295 1 2 0.0 36.094049 77.649636 -50.761473
296 1 2 0.0 40.589499 77.614023 -50.562322
297 1 2 0.0 42.394971 81.583513 -51.672918
298 1 2 0.0 46.307085 83.239414 -50.188546
299 1 2 0.0 44.685269 79.354584 -48.598636
300 1 2 0.0 48.990070 78.344690 -49.434580
301 1 2 0.0 53.192763 79.456007 -50.597487
302 1 2 0.0 56.093125 81.529698 -47.851999
303 1 2 0.0 54.884696 85.099484 -50.310928
304 1 2 0.0 59.370245 85.314696 -50.021915
305 1 2 0.0 58.764861 89.763069 -50.330921
306 1 2 0.0 55.145634 88.146733 -48.200510
307 1 2 0.0 57.143941 91.445734 -45.882458
308 1 2 0.0 55.074646 95.164308 -47.345408
309 1 2 0.0 59.561262 95.422915 -47.114337
310 1 2 0.0 63.687528 94.678558 -48.748310
311 1 2 0.0 66.112677 92.778744 -45.468164
312 1 2 0.0 63.030021 94.583728 -48.204817
313 1 2 0.0 65.661502 90.939824 -47.987402
314 1 2 0.0 61.162561 90.947197 -48.084719
315 1 2 0.0 57.200460 92.322724 -49.715571
316 1 2 0.0 58.391928 94.910125 -53.199213
317 1 2 0.0 58.667377 91.711264 -56.352214
318 1 2 0.0 58.968507 91.049660 -51.911313
319 1 2 0.0 59.071384 94.276001 -55.046619
320 1 2 0.0 60.029859 93.920708 -59.428981
321 1 2 0.0 57.460138 90.279807 -60.053779
322 1 2 0.0 53.127225 89.131614 -59.656884
323 1 2 0.0 57.260650 87.838167 -60.878274
324 1 2 0.0 57.055986 91.557897 -63.402501
325 1 2 0.0 56.302854 95.534358 -65.369874
326 1 2 0.0 60.190575 93.312924 -65.818038
327 1 2 0.0 64.014370 90.963143 -65.490739
328 1 2 0.0 59.580074 91.716563 -65.351542
329 1 2 0.0 56.926209 88.960964 -67.720862
330 1 2 0.0 61.401267 89.428977 -67.651460
331 1 2 0.0 57.887530 92.119265 -66.835373
332 1 2 0.0 54.515698 90.116632 -64.628518
333 1 2 0.0 58.918486 90.262185 -63.709678
334 1 2 0.0 54.584466 89.106052 -63.349641
335 1 2 0.0 52.812675 92.189432 -60.592192
336 1 2 0.0 48.464890 91.122000 -61.047552
337 1 2 0.0 50.829553 88.039298 -63.318084
338 1 2 0.0 51.061585 90.353487 -67.170445
339 1 2 0.0 50.145607 86.758880 -69.717951
340 1 2 0.0 51.049527 82.368996 -70.120260
341 1 2 0.0 51.837886 77.953072 -70.478172
342 1 2 0.0 48.242941 77.819934 -73.181623
343 1 2 0.0 43.796157 77.392010 -73.722907
344 1 2 0.0 44.826159 81.297096 -71.738114
345 1 2 0.0 48.813966 81.476409 -69.660798
346 1 2 0.0 53.255959 81.434392 -68.941816
347 1 2 0.0 53.126547 80.048384 -64.662537
348 1 2 0.0 57.625999 80.032739 -64.731036
349 1 2 0.0 61.194337 82.355089 -66.188312
350 1 2 0.0 62.731083 78.716094 -68.343799
351 1 2 0.0 60.487073 74.864278 -68.958560
352 1 2 0.0 56.725458 77.019680 -70.164582
353 1 2 0.0 52.975347 76.276566 -72.538282
354 1 2 0.0 56.972980 76.347889 -74.603188
355 1 2 0.0 57.035764 77.455447 -70.242067
356 1 2 0.0 61.298632 76.115883 -69.709598
357 1 2 0.0 60.167868 75.361345 -65.419838
358 1 2 0.0 64.463517 76.524195 -66.087052
359 1 2 0.0 66.135141 75.460518 -62.046722
360 1 2 0.0 65.856687 76.467336 -66.423797
361 1 2 0.0 64.567484 72.982305 -68.962007
362 1 2 0.0 67.884573 70.070460 -68.085607
363 1 2 0.0 69.367666 74.256961 -68.809242
364 1 2 0.0 66.921396 76.428351 -65.718802
365 1 2 0.0 66.585340 73.773295 -69.336500
366 1 2 0.0 68.960396 69.996892 -69.926318
367 1 2 0.0 68.009003 72.522985 -73.526832
368 1 2 0.0 72.191014 70.945170 -74.047677
369 1 2 0.0 67.932490 72.389390 -73.876799
370 1 2 0.0 67.791344 68.513566 -76.158917
371 1 2 0.0 71.771255 70.266728 -77.315087
372 1 2 0.0 70.971209 66.393669 -79.462024
373 1 2 0.0 75.194814 67.183858 -80.798724
374 1 2 0.0 71.253863 65.615954 -79.295200
375 1 2 0.0 66.754443 65.657137 -79.235822
376 1 2 0.0 67.898266 69.961602 -79.878669
377 1 2 0.0 68.122217 66.541369 -82.794464
378 1 2 0.0 64.234230 65.810511 -84.939086
379 1 2 0.0 65.628895 63.671676 -81.233644
380 1 2 0.0 61.512259 65.470933 -81.490519
381 1 2 0.0 65.009096 62.644553 -81.674115
382 1 2 0.0 65.306284 67.134712 -81.661581
383 1 2 0.0 68.272012 66.115268 -84.888839
384 1 2 0.0 66.367079 68.558953 -81.625460
385 1 2 0.0 70.124673 70.591344 -80.211293
386 1 2 0.0 74.593484 70.170500 -79.890945
387 1 2 0.0 71.759929 71.547240 -83.104285
388 1 2 0.0 76.259740 71.509383 -83.120576
389 1 2 0.0 80.452822 72.538029 -81.851738
390 1 2 0.0 78.981016 71.385000 -77.758535
391 1 2 0.0 83.474836 71.149294 -77.763236
392 1 2 0.0 79.028210 71.816162 -77.944362
393 1 2 0.0 74.994082 73.783927 -78.266400
394 1 2 0.0 79.380027 74.290344 -79.136472
395 1 2 0.0 78.436587 74.894637 -74.778175
396 1 2 0.0 75.399109 71.732315 -73.766520
397 1 2 0.0 79.311058 70.833492 -75.800919
398 1 2 0.0 75.121387 70.134655 -74.314888
399 1 2 0.0 72.615466 73.615147 -75.677435
400 1 1 0.0 76.980561 72.604982 -75.258498

Bonds

1 1 1 2
2 1 2 3
3 1 3 4
4 1 4 5
5 1 5 6
6 1 6 7
7 1 7 8
8 1 8 9
9 1 9 10
10 1 10 11
11 1 11 12
12 1 12 13
13 1 13 14
14 1 14 15
15 1 15 16
16 1 16 17
17 1 17 18
18 1 18 19
19 1 19 20
20 1 20 21
21 1 21 22
22 1 22 23
23 1 23 24
24 1 24 25
25 1 25 26
26 1 26 27
27 1 27 28
28 1 28 29
29 1 29 30
30 1 30 31
31 1 31 32
32 1 32 33
33 1 33 34
34 1 34 35
35 1 35 36
36 1 36 37
37 1 37 38
38 1 38 39
39 1 39 40
40 1 40 41
41 1 41 42
42 1 42 43
43 1 43 44
44 1 44 45
45 1 45 46
46 1 46 47
47 1 47 48
48 1 48 49
49 1 49 50
50 1 50 51
51 1 51 52
52 1 52 53
53 1 53 54
54 1 54 55
55 1 55 56
56 1 56 57
57 1 57 58
58 1 58 59
59 1 59 60
60 1 60 61
61 1 61 62
62 1 62 63
63 1 63 64
64 1 64 65
65 1 65 66
66 1 66 67
67 1 67 68
68 1 68 69
69 1 69 70
70 1 70 71
71 1 71 72
72 1 72 73
73 1 73 74
74 1 74 75
75 1 75 76
76 1 76 77
77 1 77 78
78 1 78 79
79 1 79 80
80 1 80 81
81 1 81 82
82 1 82 83
83 1 83 84
84 1 84 85
85 1 85 86
86 1 86 87
87 1 87 88
88 1 88 89
89 1 89 90
90 1 90 91
91 1 91 92
92 1 92 93
93 1 93 94
94 1 94 95
95 1 95 96
96 1 96 97
97 1 97 98
98 1 98 99
99 1 99 100
100 1 100 101
101 1 101 102
102 1 102 103
103 1 103 104
104 1 104 105
105 1 105 106
106 1 106 107
107 1 107 108
108 1 108 109
109 1 109 110
110 1 110 111
111 1 111 112
112 1 112 113
113 1 113 114
114 1 114 115
115 1 115 116
116 1 116 117
117 1 117 118
118 1 118 119
119 1 119 120
120 1 120 121
121 1 121 122
122 1 122 123
123 1 123 124
124 1 124 125
125 1 125 126
126 1 126 127
127 1 127 128
128 1 128 129
129 1 129 130
130 1 130 131
131 1 131 132
132 1 132 133
133 1 133 134
134 1 134 135
135 1 135 136
136 1 136 137
137 1 137 138
138 1 138 139
139 1 139 140
140 1 140 141
141 1 141 142
142 1 142 143
143 1 143 144
144 1 144 145
145 1 145 146
146 1 146 147
147 1 147 148
148 1 148 149
149 1 149 150
150 1 150 151
151 1 151 152
152 1 152 153
153 1 153 154
154 1 154 155
155 1 155 156
156 1 156 157
157 1 157 158
158 1 158 159
159 1 159 160
160 1 160 161
161 1 161 162
162 1 162 163
163 1 163 164
164 1 164 165
165 1 165 166
166 1 166 167
167 1 167 168
168 1 168 169
169 1 169 170
170 1 170 171
171 1 171 172
172 1 172 173
173 1 173 174
174 1 174 175
175 1 175 176
176 1 176 177
177 1 177 178
178 1 178 179
179 1 179 180
180 1 180 181
181 1 181 182
182 1 182 183
183 1 183 184
184 1 184 185
185 1 185 186
186 1 186 187
187 1 187 188
188 1 188 189
189 1 189 190
190 1 190 191
191 1 191 192
192 1 192 193
193 1 193 194
194 1 194 195
195 1 195 196
196 1 196 197
197 1 197 198
198 1 198 199
199 1 199 200
200 1 200 201
201 1 201 202
202 1 202 203
203 1 203 204
204 1 204 205
205 1 205 206
206 1 206 207
207 1 207 208
208 1 208 209
209 1 209 210
210 1 210 211
211 1 211 212
212 1 212 213
213 1 213 214
214 1 214 215
215 1 215 216
216 1 216 217
217 1 217 218
218 1 218 219
219 1 219 220
220 1 220 221
221 1 221 222
222 1 222 223
223 1 223 224
224 1 224 225
225 1 225 226
226 1 226 227
227 1 227 228
228 1 228 229
229 1 229 230
230 1 230 231
231 1 231 232
232 1 232 233
233 1 233 234
234 1 234 235
235 1 235 236
236 1 236 237
237 1 237 238
238 1 238 239
239 1 239 240
240 1 240 241
241 1 241 242
242 1 242 243
243 1 243 244
244 1 244 245
245 1 245 246
246 1 246 247
247 1 247 248
248 1 248 249
249 1 249 250
250 1 250 251
251 1 251 252
252 1 252 253
253 1 253 254
254 1 254 255
255 1 255 256
256 1 256 257
257 1 257 258
258 1 258 259
259 1 259 260
260 1 260 261
261 1 261 262
262 1 262 263
263 1 263 264
264 1 264 265
265 1 265 266
266 1 266 267
267 1 267 268
268 1 268 269
269 1 269 270
270 1 270 271
271 1 271 272
272 1 272 273
273 1 273 274
274 1 274 275
275 1 275 276
276 1 276 277
277 1 277 278
278 1 278 279
279 1 279 280
280 1 280 281
281 1 281 282
282 1 282 283
283 1 283 284
284 1 284 285
285 1 285 286
286 1 286 287
287 1 287 288
288 1 288 289
289 1 289 290
290 1 290 291
291 1 291 292
292 1 292 293
293 1 293 294
294 1 294 295
295 1 295 296
296 1 296 297
297 1 297 298
298 1 298 299
299 1 299 300
300 1 300 301
301 1 301 302
302 1 302 303
303 1 303 304
304 1 304 305
305 1 305 306
306 1 306 307
307 1 307 308
308 1 308 309
309 1 309 310
310 1 310 311
311 1 311 312
312 1 312 313
313 1 313 314
314 1 314 315
315 1 315 316
316 1 316 317
317 1 317 318
318 1 318 319
319 1 319 320
320 1 320 321
321 1 321 322
322 1 322 323
323 1 323 324
324 1 324 325
325 1 325 326
326 1 326 327
327 1 327 328
328 1 328 329
329 1 329 330
330 1 330 331
331 1 331 332
332 1 332 333
333 1 333 334
334 1 334 335
335 1 335 336
336 1 336 337
337 1 337 338
338 1 338 339
339 1 339 340
340 1 340 341
341 1 341 342
342 1 342 343
343 1 343 344
344 1 344 345
345 1 345 346
346 1 346 347
347 1 347 348
348 1 348 349
349 1 349 350
350 1 350 351
351 1 351 352
352 1 352 353
353 1 353 354
354 1 354 355
355 1 355 356
356 1 356 357
357 1 357 358
358 1 358 359
359 1 359 360
360 1 360 361
361 1 361 362
362 1 362 363
363 1 363 364
364 1 364 365
365 1 365 366
366 1 366 367
367 1 367 368
368 1 368 369
369 1 369 370
370 1 370 371
371 1 371 372
372 1 372 373
373 1 373 374
374 1 374 375
375 1 375 376
376 1 376 377
377 1 377 378
378 1 378 379
379 1 379 380
380 1 380 381
381 1 381 382
382 1 382 383
383 1 383 384
384 1 384 385
385 1 385 386
386 1 386 387
387 1 387 388
388 1 388 389
389 1 389 390
390 1 390 391
391 1 391 392
392 1 392 393
393 1 393 394
394 1 394 395
395 1 395 396
396 1 396 397
397 1 397 398
398 1 398 399
399 1 399 400
