LAMMPS data file via write_data, version 29 Aug 2024, timestep = 10500023, units = real

400 atoms
2 atom types
399 bonds
1 bond types

-95.5344 95.5344 xlo xhi
-95.5344 95.5344 ylo yhi
-95.5344 95.5344 zlo zhi

Masses

1 72
2 72

Pair Coeffs # lj/cut

1 0 5.1
2 0 5.1

Bond Coeffs # harmonic

1 27.486 4.48

Atoms # full

379 1 2 0 61.82417461447106 68.658078192254 -76.55047936118821 0 0 0
371 1 2 0 56.654067928958824 68.01209079624303 -76.27275856067338 0 0 0
381 1 2 0 64.08197960903058 67.35571918908762 -75.77856990614421 0 0 0
370 1 2 0 59.89574309094075 71.17322683918148 -76.26944440574034 0 0 0
377 1 2 0 58.00054292400288 72.5325259073344 -76.43045183732863 0 0 0
378 1 2 0 61.44521203058283 72.19900174511179 -79.25740430836126 0 0 0
358 1 2 0 65.70362595888807 72.1008487504296 -76.96537197943786 0 0 0
391 1 2 0 69.29117138320038 70.22253624685904 -75.86787980782778 0 0 0
395 1 2 0 74.8491860484815 74.1626895176144 -77.28462027940819 0 0 0
394 1 2 0 70.5076080939627 73.20211062969801 -77.68823772175755 0 0 0
360 1 2 0 62.90330835700148 79.88107010365337 -76.4837540624957 0 0 0
388 1 2 0 68.69527478475608 76.14928840588748 -75.87707237785897 0 0 0
361 1 2 0 65.56056247733844 83.5247235215587 -76.09177502553563 0 0 0
362 1 2 0 70.09353210692068 83.71118957501923 -76.01757533772837 0 0 0
376 1 2 0 58.26762223817659 68.06899294454857 -75.72908697872745 0 0 0
375 1 2 0 61.86617804710462 68.87957882114944 -73.25980759661847 0 0 0
372 1 2 0 59.34393940025324 66.75530127264608 -72.95053735554002 0 0 0
382 1 2 0 65.68435860813457 68.14065066318227 -71.65030937170482 0 0 0
373 1 2 0 62.05690326465283 69.3848443468064 -75.25528390049745 0 0 0
369 1 2 0 59.299364032283655 74.79654242128782 -73.68584269867739 0 0 0
374 1 2 0 57.72706560325947 70.18829133567279 -74.60878789038246 0 0 0
380 1 2 0 64.96174224877018 71.69839164246177 -75.72748218226913 0 0 0
368 1 2 0 63.15036582174092 73.22452537704159 -75.2744899350082 0 0 0
392 1 2 0 66.96469569577432 70.04857645546586 -72.02870626039476 0 0 0
383 1 2 0 69.15534866002362 70.47746799035106 -70.0986466798599 0 0 0
359 1 2 0 63.86964294043013 75.77070765937282 -75.18553377038104 0 0 0
356 1 2 0 66.40962120997989 73.33607682994226 -73.86283190528991 0 0 0
389 1 2 0 66.71780837511037 73.73847236937146 -72.68943219060571 0 0 0
393 1 2 0 67.68302981806589 73.7944665462302 -74.3099616844212 0 0 0
398 1 2 0 69.11959156065407 73.73870124865456 -70.30504354904089 0 0 0
357 1 2 0 69.96530145335853 71.34404434736135 -75.73946532783071 0 0 0
390 1 2 0 70.5739476836575 71.72263513431906 -71.93177461856241 0 0 0
384 1 2 0 72.78065262444203 73.00761252515404 -70.63818797794829 0 0 0
387 1 2 0 72.97994262050375 75.19111445523552 -75.62713692571691 0 0 0
396 1 2 0 75.11343317788696 75.25400994287187 -72.90953515706529 0 0 0
353 1 2 0 59.27960279418009 77.85566117544725 -70.50779309867022 0 0 0
354 1 2 0 60.42088078953766 78.18921612274694 -74.84101353872262 0 0 0
367 1 2 0 66.41088460696794 76.24599907789484 -75.74010134619368 0 0 0
355 1 2 0 63.72522304904197 76.49153353807327 -72.32557938054197 0 0 0
386 1 2 0 69.33170232242597 75.95661130987567 -73.15638550721174 0 0 0
366 1 2 0 70.48377240159492 77.95302536403874 -74.90664514548031 0 0 0
365 1 2 0 74.1248409402425 80.51788104129172 -74.6026167851791 0 0 0
363 1 2 0 73.84987982131582 81.25129604598601 -75.24270718837859 0 0 0
364 1 2 0 78.11309988680429 82.4689797220259 -74.304066911049 0 0 0
400 1 1 0 65.18738709348706 68.33283170251651 -66.14052557665846 0 0 0
399 1 2 0 68.2716987755912 71.40138094663897 -66.5288335561511 0 0 0
385 1 2 0 69.27118964093995 75.17076809824175 -68.76765715385012 0 0 0
397 1 2 0 73.29134132013888 74.6432715111554 -68.94511216711109 0 0 0
352 1 2 0 62.012981217434046 80.983825546405 -68.82900530595072 0 0 0
351 1 2 0 64.55358888082245 79.25342814081512 -65.56568685416043 0 0 0
348 1 2 0 61.569030102152176 78.98787177639083 -60.07929041936976 0 0 0
346 1 2 0 57.78277127057772 77.43379779202152 -58.21552548808571 0 0 0
350 1 2 0 63.98257560817102 82.15710731886024 -62.16038642252007 0 0 0
349 1 2 0 65.24491637432378 80.60220382066711 -58.139418422107546 0 0 0
345 1 2 0 57.98798782600468 75.64085097003228 -54.13063121742726 0 0 0
344 1 2 0 61.47860487940477 75.33707416875906 -51.348568321382956 0 0 0
347 1 2 0 61.244028690427776 78.41038052052224 -55.60840874828024 0 0 0
76 1 2 0 29.04832209770347 41.83388108632488 -43.15071619968127 0 0 0
85 1 2 0 16.494365157992068 45.109496035612906 -45.516221660949824 0 0 0
84 1 2 0 20.812489130512805 45.022351774018574 -44.99364490422068 0 0 0
90 1 2 0 18.375680350707018 44.75328920219205 -43.881196218423995 0 0 0
75 1 2 0 26.063649566194695 45.22546820885256 -43.33396363095227 0 0 0
79 1 2 0 29.690780477310295 47.98160607716714 -43.040794001411534 0 0 0
78 1 2 0 32.319469540744 44.39303288146701 -43.82219800987282 0 0 0
92 1 2 0 21.55962121142816 49.687079178072864 -43.78464778964904 0 0 0
93 1 2 0 23.115461747561053 51.678858991697886 -47.374624202299294 0 0 0
94 1 2 0 26.580848799768187 53.32251619544614 -45.16789332134533 0 0 0
342 1 2 0 61.47426534658615 74.97177050764647 -46.080385196430974 0 0 0
343 1 2 0 63.78137074140888 72.31030819935087 -48.89851388411333 0 0 0
102 1 2 0 32.86183325561835 35.95344793007357 -40.33287528541665 0 0 0
100 1 2 0 28.784508272624695 41.53175423494553 -41.21988387415993 0 0 0
81 1 2 0 25.513784725966815 42.73323879172603 -37.54672274067323 0 0 0
101 1 2 0 32.32217124661414 40.14174443531209 -38.581232701821655 0 0 0
77 1 2 0 33.205185225099136 40.20531911383787 -42.231470825808486 0 0 0
104 1 2 0 32.63121885964222 40.06714748602001 -36.75993952301729 0 0 0
86 1 2 0 13.62639477263936 44.477387475737494 -42.10348657603838 0 0 0
87 1 2 0 15.123634915395346 44.14612166259382 -37.942391695913045 0 0 0
88 1 2 0 18.783549510616027 43.32845500093636 -40.379783906291145 0 0 0
83 1 2 0 21.256602547238813 45.12620376473406 -40.45766250480611 0 0 0
91 1 2 0 22.41556718512307 45.459126354551174 -42.14422007572737 0 0 0
89 1 2 0 19.65036108273396 47.68968719345724 -40.892888075747095 0 0 0
82 1 2 0 25.678251599911373 45.33937618924263 -41.301840453229424 0 0 0
80 1 2 0 28.566826644218605 44.98040856168735 -39.90149910533766 0 0 0
74 1 2 0 28.908664116511485 45.40291395057715 -39.68944177165634 0 0 0
99 1 2 0 29.2099720407534 45.610812405543406 -39.36219393762722 0 0 0
97 1 2 0 33.49439410900348 47.5753222417981 -39.57780908255529 0 0 0
95 1 2 0 29.226383314407016 50.852150991236286 -42.563978579859985 0 0 0
98 1 2 0 30.03243494974515 49.713833034107104 -37.801439614212015 0 0 0
96 1 2 0 31.287386675377547 51.247733263070465 -38.6281939134898 0 0 0
318 1 2 0 32.72541568612023 64.9876920134087 -41.769191449986415 0 0 0
319 1 2 0 31.533091167877494 63.870528366292646 -37.58388408892387 0 0 0
317 1 2 0 36.287653423912495 67.41853197636968 -40.59135958263008 0 0 0
223 1 2 0 43.83201513636473 65.93447285145713 -36.468412328796106 0 0 0
316 1 2 0 36.5017179662482 70.51780434062496 -37.36589619867507 0 0 0
324 1 2 0 41.37366282350533 70.21820893290595 -37.50282840219012 0 0 0
325 1 2 0 43.87171046157214 73.76081704901574 -38.765975112264094 0 0 0
341 1 2 0 61.046752633733405 72.67383321204228 -42.209889972209375 0 0 0
340 1 2 0 61.77226987218175 69.29590658355743 -39.404533317573026 0 0 0
103 1 2 0 34.60814769776813 36.07428596001908 -36.20808612161685 0 0 0
107 1 2 0 25.19030387984974 38.703499225797046 -32.57059110193059 0 0 0
106 1 2 0 28.604680205283255 39.123398484368934 -35.518064714239685 0 0 0
125 1 2 0 24.757116285174384 40.27173073024832 -29.95265965542469 0 0 0
111 1 2 0 27.59752115548678 40.89188265527777 -33.541423125177396 0 0 0
108 1 2 0 29.60906210734319 39.39632566676245 -32.33639223967178 0 0 0
72 1 2 0 30.377715872593182 42.79250221955865 -34.07459393871817 0 0 0
105 1 2 0 31.31938771494883 41.13416456976581 -32.62141845638303 0 0 0
113 1 2 0 25.241231059025562 44.44755844570786 -30.283728903973902 0 0 0
110 1 2 0 29.49485377241371 43.08765700883692 -30.115014473194453 0 0 0
112 1 2 0 29.519024016881467 43.76295352164815 -30.737606063224863 0 0 0
71 1 2 0 32.76031552502912 43.837125289125325 -30.403571341839594 0 0 0
73 1 2 0 31.55270242166016 46.50130775162104 -36.188775422878415 0 0 0
302 1 2 0 43.93711045156283 55.31521716422938 -30.444113095396375 0 0 0
307 1 2 0 34.25956139735934 59.98643506905932 -30.107099873662488 0 0 0
310 1 2 0 39.794158813396635 59.711628326823174 -31.806013320012763 0 0 0
304 1 2 0 37.153972668255236 59.51802946376975 -33.963152414516074 0 0 0
303 1 2 0 40.011560802877725 56.55794411351607 -32.256102345665894 0 0 0
163 1 2 0 21.738096468510413 62.54380068163192 -30.14657038497255 0 0 0
212 1 2 0 27.250687770809783 66.72045814318906 -31.424445516682468 0 0 0
214 1 2 0 29.409221695725435 66.87668538573445 -30.249401918133596 0 0 0
217 1 2 0 33.38820697689058 66.13556241703934 -31.341858643927132 0 0 0
320 1 2 0 30.386256914510728 66.13147574902833 -33.867721132776964 0 0 0
321 1 2 0 33.53813829509147 65.96798769623018 -30.661909017783344 0 0 0
219 1 2 0 33.782380981974946 62.844660432983716 -32.69217417327043 0 0 0
220 1 2 0 35.53202231670367 67.00107444797612 -31.705910934223002 0 0 0
233 1 2 0 34.63659029288221 68.24286879989374 -30.6390710068887 0 0 0
222 1 2 0 39.68879538674783 65.8584720985055 -35.50876044084777 0 0 0
221 1 2 0 39.69879082689271 67.15456752737103 -30.899784010137054 0 0 0
227 1 2 0 42.12902594989071 65.75931052382124 -30.251807167304932 0 0 0
225 1 2 0 41.19869342538347 66.20778163386949 -30.240390551134606 0 0 0
226 1 2 0 42.17901347187476 68.44241545529152 -33.988636830171885 0 0 0
224 1 2 0 45.149667127357134 66.47095606153982 -32.31699701685513 0 0 0
337 1 2 0 53.8544011446634 65.73923396662795 -30.74315134879312 0 0 0
338 1 2 0 57.97510946032324 67.0083631801719 -32.03643753204253 0 0 0
339 1 2 0 60.700430834021134 68.90866909795211 -35.02896699154976 0 0 0
213 1 2 0 28.116086185543097 70.9700948947164 -31.67142944386683 0 0 0
216 1 2 0 33.953344278161865 70.51952999388207 -31.782183256567617 0 0 0
314 1 2 0 34.62621218195919 70.0219061897358 -32.80544823830981 0 0 0
322 1 2 0 35.2785369275354 70.09538897780885 -31.234881977471414 0 0 0
315 1 2 0 37.0164515589646 73.55498189501007 -34.16208837820363 0 0 0
323 1 2 0 38.98893942041326 69.653707621478 -33.71192960581532 0 0 0
326 1 2 0 46.75484182523839 72.80151615884499 -35.45026591703411 0 0 0
327 1 2 0 50.458603388552426 74.61711278541704 -33.66292985208499 0 0 0
328 1 2 0 52.910399598270324 75.80251524400511 -30.075621023712987 0 0 0
121 1 2 0 22.22857944805714 42.335070189110674 -25.742657394997035 0 0 0
115 1 2 0 21.659476570778118 42.847350658370175 -23.908001519938892 0 0 0
126 1 2 0 24.923686170449606 40.815494876224776 -25.490068168003187 0 0 0
124 1 2 0 28.45539417130372 42.65893857556538 -29.093185547095175 0 0 0
123 1 2 0 26.486634115463662 41.190132169645274 -25.286485269280014 0 0 0
109 1 2 0 30.55999357298354 39.31602053152868 -27.92379815196477 0 0 0
120 1 2 0 18.248526695547454 44.23418708142061 -26.117942658615487 0 0 0
128 1 2 0 20.00577409592134 47.601031453093 -26.39226110012483 0 0 0
118 1 2 0 22.759015378852038 45.666536241935724 -25.100749188905233 0 0 0
114 1 2 0 21.30672107093006 43.53679361081204 -28.370402201813633 0 0 0
127 1 2 0 22.58622450691445 44.11044683152672 -27.54121037665018 0 0 0
129 1 2 0 23.015609663101884 48.9448483534671 -23.436323600146665 0 0 0
139 1 2 0 25.519302134077996 48.807493173891686 -23.655192995857096 0 0 0
116 1 2 0 25.557044055857485 44.451798763486096 -25.344353982360158 0 0 0
122 1 2 0 24.997457575069724 45.38196464849055 -24.199016047689515 0 0 0
143 1 2 0 23.564897820094927 45.4066929130212 -23.80769960609683 0 0 0
131 1 2 0 24.18534855020783 48.07234817601014 -23.90979003331773 0 0 0
117 1 2 0 25.820255899808817 48.83381745950843 -25.615989452434356 0 0 0
68 1 2 0 35.70924657079614 47.09669036211873 -25.334610755587605 0 0 0
70 1 2 0 36.82223248942444 44.94393091809619 -28.8295526395778 0 0 0
69 1 2 0 37.83217790111216 49.23921311490174 -28.526045672492135 0 0 0
156 1 2 0 22.351245926071456 53.239592888284996 -27.851904703307966 0 0 0
166 1 2 0 22.85056719155585 54.38925442322358 -26.07539628815718 0 0 0
130 1 2 0 22.84542182417238 50.07077884501451 -27.691059049711157 0 0 0
167 1 2 0 19.385261125772 53.96170772609901 -29.077775537268128 0 0 0
147 1 2 0 17.70702264097704 52.04199600079043 -25.12331379919071 0 0 0
157 1 2 0 22.772945032687264 53.295088887697474 -23.40343669394432 0 0 0
155 1 2 0 23.498027661334564 54.610658760455465 -23.528995551989237 0 0 0
144 1 2 0 25.370875562281746 49.52307187997276 -23.902640062551825 0 0 0
142 1 2 0 23.385611157471995 49.93463956972112 -24.144336576101722 0 0 0
169 1 2 0 15.526113380588379 60.988920217162786 -28.72575414475965 0 0 0
168 1 2 0 16.433137282303374 56.77328776882421 -27.392537945595784 0 0 0
153 1 2 0 20.006097806360923 57.89846904959828 -24.61561757079585 0 0 0
158 1 2 0 21.177290164375297 57.23937255414597 -24.09331352263359 0 0 0
172 1 2 0 21.217400990981428 56.405165538272584 -24.515579600971886 0 0 0
162 1 2 0 20.834897575295145 61.18459653636552 -25.516975263679367 0 0 0
170 1 2 0 19.980733833336373 62.03737564245172 -28.436947598023064 0 0 0
171 1 2 0 22.930969562771935 60.83954448026842 -25.422835996950194 0 0 0
164 1 2 0 23.580768323121813 59.28550084387574 -27.81676176460183 0 0 0
154 1 2 0 24.308450263228163 58.44325899391405 -25.672821358484217 0 0 0
176 1 2 0 26.01044869944609 56.2495134909431 -23.223852653937058 0 0 0
165 1 2 0 26.675991002238753 56.7322964630663 -26.019267756800158 0 0 0
241 1 2 0 26.179702194652442 61.3806495477703 -28.142848046331192 0 0 0
236 1 2 0 26.189718129920706 61.898431085366084 -26.83584518704878 0 0 0
178 1 2 0 26.769056523105252 61.643518830825585 -23.295095042604725 0 0 0
242 1 2 0 23.775097675761447 62.01171994952438 -24.497698266576947 0 0 0
235 1 2 0 30.80310662247911 62.24366244521779 -27.77447926035468 0 0 0
306 1 2 0 35.71475445006015 60.44141984770136 -25.8854183243754 0 0 0
238 1 2 0 31.406796072801367 59.81667559250107 -23.239731898393092 0 0 0
309 1 2 0 36.24647985529676 58.394943254657896 -29.45518334825703 0 0 0
308 1 2 0 37.96561830723651 62.524272134482516 -29.462263704454614 0 0 0
190 1 2 0 39.75526462911536 58.55633014776682 -23.73499605259467 0 0 0
305 1 2 0 38.21605059352136 60.15551866747308 -29.662651135230096 0 0 0
301 1 2 0 45.11301345492267 56.0356784235573 -26.211941496696014 0 0 0
209 1 2 0 27.86237214081307 65.47615938112921 -25.769193916919203 0 0 0
211 1 2 0 27.605222386081515 67.17027591600402 -27.071068914467173 0 0 0
210 1 2 0 23.322831500028297 65.20191957159976 -26.77257413004514 0 0 0
240 1 2 0 29.93314677576605 63.30676707687274 -28.987484021313747 0 0 0
218 1 2 0 34.79222907513131 63.024186561723475 -28.472686335854775 0 0 0
234 1 2 0 34.63925681173311 64.1192079075291 -29.05092458269338 0 0 0
237 1 2 0 30.384498642358018 63.423567900514215 -26.406020167923007 0 0 0
239 1 2 0 32.42703242600632 63.69822040092069 -25.26250068099354 0 0 0
208 1 2 0 31.87232493797889 66.94541074257556 -25.192221583496664 0 0 0
313 1 2 0 34.1837775057088 67.38223595575148 -29.239796082410006 0 0 0
215 1 2 0 33.00219257258592 68.63798164332965 -28.0081048602542 0 0 0
195 1 2 0 36.72276408222532 66.86814061845472 -24.150104971803824 0 0 0
228 1 2 0 39.76598056891511 66.37686830343722 -26.961106668622907 0 0 0
311 1 2 0 40.77747985712401 63.50508872533613 -29.645339461246646 0 0 0
312 1 2 0 36.96335513089698 64.3920267703002 -27.401526483048716 0 0 0
278 1 2 0 36.45500115202818 63.335995790227464 -23.522060868807632 0 0 0
229 1 2 0 42.15629890326017 69.11369980946516 -24.312706332107386 0 0 0
336 1 2 0 54.53313701471515 67.96716016333787 -26.900177225405873 0 0 0
335 1 2 0 51.595402354035315 68.47394705075644 -23.54184203583779 0 0 0
232 1 2 0 37.2642247379327 71.31673230417977 -28.477663507556038 0 0 0
230 1 2 0 38.723592599413145 71.58250568053091 -24.243584181531947 0 0 0
231 1 2 0 39.65849619824703 74.84635898558743 -27.11433369060025 0 0 0
329 1 2 0 55.0360797807667 74.87934431460742 -26.236014301306536 0 0 0
294 1 2 0 54.926435871424395 69.84535927425438 -25.496261045466834 0 0 0
293 1 2 0 51.32309306343391 72.52344029235329 -25.343660565436522 0 0 0
65 1 2 0 31.33501477288179 42.27326577837441 -17.053241658336276 0 0 0
149 1 2 0 14.561167252212666 47.0737264484034 -19.099832937128625 0 0 0
140 1 2 0 21.81305801123111 46.47694768192783 -22.458594445047126 0 0 0
119 1 2 0 19.540379534230514 44.81667444352431 -21.945747277095094 0 0 0
133 1 2 0 22.756692747520873 49.26158686603049 -20.54552423040304 0 0 0
137 1 2 0 25.063667712697544 47.042226665814844 -20.718017972063926 0 0 0
67 1 2 0 35.79811710290275 43.20657594837573 -23.044598257217782 0 0 0
66 1 2 0 31.520839439090608 43.33978269661388 -21.50681152652561 0 0 0
186 1 2 0 38.908464312935195 48.692837733701545 -20.249229618669442 0 0 0
150 1 2 0 16.857329101196758 50.80594552732198 -19.892722964644225 0 0 0
148 1 2 0 16.877998625773028 50.40855166514327 -20.91086123064058 0 0 0
146 1 2 0 20.91657305095951 50.64431066264862 -22.708508268842195 0 0 0
141 1 2 0 19.317921088888177 50.18400419828013 -22.23234710630285 0 0 0
151 1 2 0 17.24104116451665 54.469712770174894 -22.53653957240155 0 0 0
175 1 2 0 21.88895516622514 55.11051850704678 -22.90479896963275 0 0 0
145 1 2 0 24.41616709678549 51.28935850009308 -19.701105079058788 0 0 0
138 1 2 0 24.9392633881172 51.70159741136928 -20.136577973881852 0 0 0
132 1 2 0 26.796179649754443 50.81945518845002 -21.59501262089044 0 0 0
184 1 2 0 34.61084548181208 54.5930033302688 -18.299187964347006 0 0 0
187 1 2 0 38.01064793982967 53.01574878889206 -19.956881320809376 0 0 0
185 1 2 0 38.51278943740066 53.10445972198951 -20.329413557556624 0 0 0
173 1 2 0 18.054917034880624 59.00231962389303 -22.793710735586355 0 0 0
161 1 2 0 18.950517363936974 60.39875573125136 -21.336883474849458 0 0 0
152 1 2 0 19.248968533843016 57.861174229908684 -20.227749130400372 0 0 0
159 1 2 0 19.51442245719572 60.76316183787046 -22.36301582964881 0 0 0
174 1 2 0 22.298644216095553 59.335012256528586 -21.496304442486448 0 0 0
177 1 2 0 26.418757648542396 58.967000610847315 -19.552918021079957 0 0 0
179 1 2 0 28.040858575094667 58.57255399874568 -20.406829241675524 0 0 0
248 1 2 0 27.324567002931342 58.95321920193668 -16.85263433572872 0 0 0
182 1 2 0 30.99130359413564 56.7286736874008 -21.92085865837912 0 0 0
183 1 2 0 34.828465998862235 58.401981230125905 -20.425010069927325 0 0 0
181 1 2 0 34.14071409552158 56.17477198735251 -18.49057300213033 0 0 0
189 1 2 0 35.70362091448054 56.724953100531074 -22.528894628435445 0 0 0
267 1 2 0 33.114329529701166 58.439978628817045 -20.7332674128454 0 0 0
247 1 2 0 30.620662686143813 60.93600063555428 -19.248398488335177 0 0 0
266 1 2 0 33.53496295913866 62.265636463717556 -18.180287091607934 0 0 0
269 1 2 0 34.97939164219938 60.14578005474605 -18.343775392053093 0 0 0
180 1 2 0 31.006488898525387 58.69207062406775 -17.015671028457927 0 0 0
188 1 2 0 39.503026533065935 57.24882443650246 -20.304174279383194 0 0 0
191 1 2 0 38.33009636210006 59.71107915108345 -19.754628526060188 0 0 0
270 1 2 0 39.26857193447977 59.34065711371833 -17.46444571155991 0 0 0
300 1 2 0 44.71114675721311 56.98106172359412 -21.893845124415876 0 0 0
298 1 2 0 48.35751291263444 61.21399233693293 -19.33340389281297 0 0 0
299 1 2 0 47.74688682558431 56.78882222528928 -18.59550343769668 0 0 0
160 1 2 0 19.965019858864117 64.35842445091353 -19.6113336842661 0 0 0
243 1 2 0 26.444557833084986 62.99349759686997 -21.330125802851672 0 0 0
244 1 2 0 26.68278279541178 66.88433557882485 -19.261774819279616 0 0 0
207 1 2 0 33.378140235521 68.8917106811062 -21.342241334125404 0 0 0
193 1 2 0 34.18855956993709 63.3264496026914 -17.737015650426777 0 0 0
205 1 2 0 35.34091053047787 63.192249442959934 -17.94008041078092 0 0 0
206 1 2 0 35.603226281984604 64.89659980851147 -21.922722831826906 0 0 0
202 1 2 0 32.60285160709775 66.20353604288653 -19.98394882678432 0 0 0
268 1 2 0 31.498319086770504 62.681556742064075 -19.86902983937024 0 0 0
204 1 2 0 31.256703579871804 64.79153002672595 -19.310863322967055 0 0 0
265 1 2 0 35.461736592884655 66.14672627970772 -17.830642115092495 0 0 0
194 1 2 0 35.807742805034394 62.89041774127479 -21.919796088751877 0 0 0
279 1 2 0 36.31297925597626 63.328569038503716 -18.91800602229876 0 0 0
287 1 2 0 36.45756924541404 67.0266257029703 -18.155735721826694 0 0 0
285 1 2 0 36.4887690003728 64.28379672157335 -21.58247955343057 0 0 0
286 1 2 0 40.27984767493776 66.25014804347819 -20.044331932160578 0 0 0
284 1 2 0 38.7848155685401 66.83016320965287 -18.408235887684263 0 0 0
277 1 2 0 38.20595314000682 63.62460583921331 -19.43350203822199 0 0 0
196 1 2 0 37.39022457621428 69.02524048457063 -20.139722234646218 0 0 0
333 1 2 0 54.616081507640175 64.83034608194676 -21.1677939024292 0 0 0
297 1 2 0 51.617775258100494 64.0247521111417 -18.239599417003365 0 0 0
296 1 2 0 53.78077663255011 67.98564958128947 -18.753463163128174 0 0 0
332 1 2 0 55.02279616064517 66.6185764154439 -17.091182055221754 0 0 0
334 1 2 0 53.3214441594294 68.8004781600343 -19.365242254574426 0 0 0
295 1 2 0 56.42665651483853 67.35430044785232 -22.175789610421653 0 0 0
259 1 2 0 31.524393645802153 69.51909065276158 -18.613900272409467 0 0 0
201 1 2 0 30.176410051303233 69.98885113795284 -19.249189212761365 0 0 0
197 1 2 0 33.5998303981172 71.76804779720824 -19.51970360917928 0 0 0
260 1 2 0 35.32551017646662 71.85478952433866 -18.816653101474127 0 0 0
199 1 2 0 30.869657521599912 73.97157797649639 -18.5512415255349 0 0 0
198 1 2 0 34.260771749380794 75.83948631127643 -20.730904373250095 0 0 0
200 1 2 0 34.09287926868447 71.51404936449579 -20.650174385370484 0 0 0
288 1 2 0 35.61873082662617 71.21849947648562 -19.03219166500975 0 0 0
289 1 2 0 34.839152068741356 75.34914436495932 -20.800043793361972 0 0 0
262 1 2 0 36.830639632987044 73.19664630812937 -17.79412366290711 0 0 0
290 1 2 0 39.03828327559879 73.60422406305639 -21.322514348571328 0 0 0
292 1 2 0 47.96665181584326 73.67389351812093 -22.423209408665503 0 0 0
291 1 2 0 43.30933894176869 73.70212773635016 -22.54908204678002 0 0 0
330 1 2 0 54.96926741749573 72.66555753459058 -22.38769509553055 0 0 0
331 1 2 0 56.9546922619444 69.87205189986594 -19.49602535369952 0 0 0
64 1 2 0 32.16018996367735 40.84022752165471 -12.912322751868487 0 0 0
135 1 2 0 21.46399872950431 46.6569642707578 -14.919535017959433 0 0 0
136 1 2 0 25.553885339441628 47.85833598919523 -16.199350828563237 0 0 0
134 1 2 0 23.017698991611304 50.703748304310295 -16.30404823219743 0 0 0
282 1 2 0 34.74741528200663 61.55151968506925 -12.183777081589945 0 0 0
280 1 2 0 38.69865909670786 60.31333383849087 -16.43015709006278 0 0 0
192 1 2 0 36.46981622590797 59.795760945486585 -15.844628052105191 0 0 0
271 1 2 0 41.253069354460294 62.58879646454631 -14.969673956639062 0 0 0
276 1 2 0 37.65734976058936 61.73461009006091 -15.276344597459783 0 0 0
249 1 2 0 28.621644647436167 63.28590422377508 -16.182234244403855 0 0 0
245 1 2 0 26.990324949488706 66.3414105617896 -14.827956697573667 0 0 0
246 1 2 0 29.83635132738406 62.723445433599906 -14.992273691501577 0 0 0
258 1 2 0 32.915292782653346 66.30662282428787 -15.828344029761459 0 0 0
283 1 2 0 36.116273443533075 64.73506241421613 -15.182274535969524 0 0 0
203 1 2 0 33.26152298860583 66.33588484422707 -15.477753170577449 0 0 0
250 1 2 0 32.32503811497656 65.36167691144358 -14.879549354572775 0 0 0
253 1 2 0 35.95866560166559 68.67740796791657 -12.417188020107195 0 0 0
257 1 2 0 35.251727395412246 63.485589609169686 -13.577189014378819 0 0 0
254 1 2 0 31.759112074168563 67.22175820506102 -12.660281626227183 0 0 0
255 1 2 0 34.916950373705845 68.39231493322853 -15.915695133700572 0 0 0
272 1 2 0 40.64101304051374 63.87243779269475 -10.799174110478322 0 0 0
256 1 2 0 38.395411957274575 65.43486155970739 -16.309281763731725 0 0 0
281 1 2 0 37.313885003187146 64.21973946804876 -14.699679754043178 0 0 0
264 1 2 0 37.10452385813517 66.47300318984978 -13.645041486540643 0 0 0
252 1 2 0 39.074583230384455 68.96876924477014 -15.626272844104532 0 0 0
275 1 2 0 40.30484299231827 63.04920649639279 -11.777597149270006 0 0 0
251 1 2 0 34.63379922698924 69.22196371875386 -14.797172867849824 0 0 0
261 1 2 0 33.80226076119552 72.6139438621969 -14.52979064108723 0 0 0
263 1 2 0 35.29174629321509 70.4473597664036 -14.794470617873504 0 0 0
1 1 1 0 18.837384718428563 22.324239524720213 -7.080116607859433 0 0 0
2 1 2 0 17.651189267659483 24.61538652343079 -3.3273600023619685 0 0 0
63 1 2 0 29.482308701440026 42.59473025783951 -9.748018446739295 0 0 0
62 1 2 0 29.49458348289909 38.44073076916717 -8.067949453573602 0 0 0
61 1 2 0 25.790624841765442 39.909229105846265 -5.871424971301684 0 0 0
273 1 2 0 41.42453891573291 60.91005492790155 -7.65077313206243 0 0 0
274 1 2 0 43.512526370481844 64.53400619762331 -9.183731925795042 0 0 0
24 1 2 0 14.677611674004126 15.252818312001157 2.7892968662372404 0 0 0
22 1 2 0 17.032249032528792 15.826063174500744 2.95096959214472 0 0 0
18 1 2 0 6.005325539587039 22.597258523277258 2.1973468979580577 0 0 0
38 1 2 0 20.251398607239693 22.119909958760353 1.4511293024115626 0 0 0
12 1 2 0 16.35297087403639 25.02430359647904 -1.6036966914334023 0 0 0
4 1 2 0 16.307488365613406 27.60809556419694 1.9824302880209288 0 0 0
6 1 2 0 14.264279583462107 29.509381330569028 0.7049518189970151 0 0 0
14 1 2 0 17.44137709578638 24.70083094641887 0.2533330403474367 0 0 0
11 1 2 0 20.195745649376278 25.11329882423168 0.6031523597459969 0 0 0
3 1 2 0 19.881250601855275 25.249442164981286 0.5504829983702167 0 0 0
13 1 2 0 17.150910268562487 29.217223562368577 -0.3174977841789526 0 0 0
5 1 2 0 16.57650214966484 27.406659869433266 -2.4371466071275485 0 0 0
7 1 2 0 18.648804246870625 29.264744427703484 0.8278247922059061 0 0 0
9 1 2 0 16.4841293986178 29.75751112929776 1.9205312207505498 0 0 0
8 1 2 0 17.718678025839136 33.61257320499757 -0.28082651900073363 0 0 0
52 1 2 0 20.32668932867154 34.91938693900729 0.16392805061604399 0 0 0
53 1 2 0 20.004498733341343 39.20210523602315 1.646544877066428 0 0 0
54 1 2 0 23.316071364516926 37.873412256796456 -0.9932383900762406 0 0 0
57 1 2 0 27.186554457278493 42.10174420166434 1.0631842660395474 0 0 0
55 1 2 0 26.414931697448058 40.693379111898366 0.5133725308119738 0 0 0
60 1 2 0 25.10277593266251 40.90413039290594 -1.5779038005642159 0 0 0
59 1 2 0 29.60798751219826 41.25809004199494 -1.398697727635293 0 0 0
56 1 2 0 30.060212037611752 41.38716964073572 -2.320091329119754 0 0 0
58 1 2 0 31.233794120600184 43.73745365917193 2.045841845421899 0 0 0
19 1 2 0 6.5888308461800325 19.039191487431946 4.7489329955281265 0 0 0
17 1 2 0 9.028644301182622 22.448294124414986 5.65185419605703 0 0 0
25 1 2 0 15.770608591718837 19.589713514974076 3.4235178150163468 0 0 0
20 1 2 0 10.300243940419177 21.208970229383855 4.4359957465181035 0 0 0
21 1 2 0 12.984476459559266 17.723171511648182 3.870323111494641 0 0 0
40 1 2 0 13.5691918892691 18.370567337584603 3.6365416283360226 0 0 0
23 1 2 0 14.998620773866458 19.246780010002492 5.054883293244811 0 0 0
41 1 2 0 12.493880480528341 18.59418523183786 7.872144292779984 0 0 0
31 1 2 0 15.284770520135666 18.947284992712536 6.409226537307957 0 0 0
39 1 2 0 16.817998968730528 21.524218429285437 3.954112942225131 0 0 0
42 1 2 0 16.663711374462327 20.058986284145508 7.343276150804504 0 0 0
26 1 2 0 19.034491321237308 22.368311647390716 4.8989662084200685 0 0 0
27 1 2 0 20.41825635994265 18.044168081988268 5.741126136928844 0 0 0
37 1 2 0 20.753639608733888 19.61758102244257 5.163718166304503 0 0 0
29 1 2 0 19.8989231234875 17.909613666945308 8.65010062727692 0 0 0
36 1 2 0 22.136603143225773 18.77565316772941 9.244977439514548 0 0 0
28 1 2 0 23.234948541739225 20.717642719543573 7.900251509836878 0 0 0
16 1 2 0 12.941096375738075 23.46121928774647 7.587507524398737 0 0 0
15 1 2 0 16.049267336185096 24.25850322959216 4.405277679133402 0 0 0
44 1 2 0 16.04499557127294 25.68571075947275 9.08823240510854 0 0 0
47 1 2 0 16.194833954912028 29.453659745886334 6.968790478053209 0 0 0
10 1 2 0 18.570310280013448 26.73060694691898 4.506993468676048 0 0 0
46 1 2 0 18.54611774393675 26.151780475159416 8.840113459546766 0 0 0
49 1 2 0 15.969893264324266 36.13664444803087 9.58072937875668 0 0 0
51 1 2 0 17.973331464318562 32.89954963024232 3.3852344944971353 0 0 0
48 1 2 0 18.222573992106483 32.44414881013519 9.473252476593924 0 0 0
50 1 2 0 17.375903644120385 36.65451655131314 5.2559373063821555 0 0 0
32 1 2 0 15.979184848508432 21.776915074781837 9.953210754194915 0 0 0
30 1 2 0 16.33058819581189 20.1811793223505 10.472132844366598 0 0 0
43 1 2 0 18.924299918838553 22.437136703993186 10.17477195668198 0 0 0
35 1 2 0 18.821441509573987 21.84317350040773 10.114805132414581 0 0 0
34 1 2 0 17.702176499176204 23.3012479758609 14.276994610056697 0 0 0
45 1 2 0 17.6225613700634 26.933980971840747 13.069500208356427 0 0 0
33 1 2 0 19.611341826154995 24.22685013563986 10.451719496612565 0 0 0

Velocities

379 0.000598503506611706 -0.0002669775716613037 0.0002909445637616966
371 0.00025712009304334197 0.00041155430954938787 -0.0006872172225380745
381 -0.0014261808710329961 -0.00011507298337394556 0.0008811476755187866
370 0.0009710142870544638 -0.0003261353287740423 0.0006828790070945255
377 0.00028226843899793573 -0.0008605778577790693 -0.00023965970108055651
378 -0.0019150953407937451 0.0004887051126030921 0.0003063271440163945
358 0.0007097601129212795 -0.0014448507843407036 2.9212778456598974e-05
391 0.00021578177583851394 0.0008729774804235155 0.0010699688769959745
395 -0.0005466840483936707 0.00037183024915989483 -0.000895920898414965
394 0.00031829694536972914 -0.002121498347802786 -0.0018699547845924187
360 -0.00025637862427137784 0.0009379584645153127 0.00017804804340485958
388 -3.113854017892747e-05 -0.0013037149407427162 0.0008023756692156176
361 0.00033816369507523407 0.0003585169399294568 -0.0004150381323247781
362 0.0008100483118263135 -0.0006097009934037901 -0.00014270681791305075