LAMMPS data file via write_data, version 29 Aug 2024, timestep = 1050027, units = real

200 atoms
2 atom types
199 bonds
1 bond types

-163.9664 163.9664 xlo xhi
-163.9664 163.9664 ylo yhi
-163.9664 163.9664 zlo zhi

Masses

1 72
2 72

Bond Coeffs # harmonic

1 27.486 4.48

Atoms # full

1 1 1 0 66.56682967616695 -15.131152836123452 -63.62205778665566 0 0 0
2 1 2 0 65.42128854543031 -11.2052351623157 -61.82911171400953 0 0 0
3 1 2 0 68.95454019516319 -13.459776107360616 -60.523627256065595 0 0 0
4 1 2 0 67.0300191009658 -10.66502750268085 -63.16976839522834 0 0 0
5 1 2 0 63.994063950968204 -8.92763617364457 -60.62136578779212 0 0 0
6 1 2 0 62.48706134219103 -7.959858390492868 -64.8486805347976 0 0 0
7 1 2 0 64.18477998387355 -12.149805307962326 -65.36353200530435 0 0 0
8 1 2 0 64.75299687122684 -16.408833553149034 -63.98903259334867 0 0 0
9 1 2 0 60.97633861675769 -17.63320838877376 -61.88235385036998 0 0 0
10 1 2 0 60.701796276267515 -21.817483064342937 -60.43731503506558 0 0 0
11 1 2 0 60.44010604052405 -17.66756730074076 -58.92246927010104 0 0 0
12 1 2 0 59.38956765749448 -15.639137792347197 -62.834485056605935 0 0 0
13 1 2 0 58.390366638125535 -18.39116601606854 -66.33552351987773 0 0 0
14 1 2 0 54.11631238692653 -17.876279021722176 -67.93543610576819 0 0 0
15 1 2 0 53.226493126566425 -15.659794924397332 -64.10209275477406 0 0 0
16 1 2 0 52.156037214012684 -11.71113817592595 -62.009982035091035 0 0 0
17 1 2 0 50.102230690216786 -7.720286501100737 -61.853255502237765 0 0 0
18 1 2 0 45.65849742721559 -7.407945645127177 -61.26314230991944 0 0 0
19 1 2 0 47.91601645496037 -10.329839156641487 -63.89245597171285 0 0 0
20 1 2 0 45.100116871037166 -7.199580001977662 -62.64998164132363 0 0 0
21 1 2 0 46.02680171383598 -11.364165644924936 -63.7848499460363 0 0 0
22 1 2 0 49.185308706316675 -8.348275930239685 -62.64560542044559 0 0 0
23 1 2 0 48.108576451731174 -4.061928917428032 -62.0994227945123 0 0 0
24 1 2 0 51.092875181714426 -4.0295984108225795 -58.7749562545383 0 0 0
25 1 2 0 53.63722368118459 -5.016037290183167 -55.11094768483045 0 0 0
26 1 2 0 50.6149570656295 -7.534281394356995 -57.0892395574061 0 0 0
27 1 2 0 52.065876327156424 -9.938686526625174 -60.569025388539195 0 0 0
28 1 2 0 52.289126746468185 -6.067516606061687 -62.797525403787596 0 0 0
29 1 2 0 51.18621271871811 -7.165162212164417 -66.89481613676045 0 0 0
30 1 2 0 55.51846697486127 -6.528463212157977 -67.12559973691262 0 0 0
31 1 2 0 51.8411384670435 -5.038190752675212 -64.9386243174784 0 0 0
32 1 2 0 48.57897530613902 -5.112397760213987 -68.13423594661764 0 0 0
33 1 2 0 47.71405471710428 -8.041678554899695 -71.64651961597595 0 0 0
34 1 2 0 46.23661949680312 -3.9467031294742316 -71.06248630468302 0 0 0
35 1 2 0 45.365192700719085 0.36870564403786754 -70.53287324738598 0 0 0
36 1 2 0 49.209673027220255 0.09365251331834552 -72.61597192971283 0 0 0
37 1 2 0 47.397850481036166 -3.688801927467267 -71.25810574897186 0 0 0
38 1 2 0 48.32616604076662 -1.1407432491283989 -74.8699887032402 0 0 0
39 1 2 0 45.84380711685658 1.8118701451036703 -77.09747579409245 0 0 0
40 1 2 0 47.886833824216595 2.5323387492766356 -81.11270069999009 0 0 0
41 1 2 0 44.84322429574858 3.956642136455644 -84.04224554956868 0 0 0
42 1 2 0 43.34346870561813 8.234024202488513 -83.9049708216042 0 0 0
43 1 2 0 41.219064438223825 6.270459563044725 -80.53201036676509 0 0 0
44 1 2 0 44.378495552334364 5.378622887265438 -77.38149220805637 0 0 0
45 1 2 0 44.02711789163473 2.0825244427976473 -74.42408612356988 0 0 0
46 1 2 0 43.68576312291642 6.065815097491568 -76.32345301785732 0 0 0
47 1 2 0 45.533196922593284 5.818392060215163 -72.3143104859052 0 0 0
48 1 2 0 44.33691490547501 4.722881655574947 -68.03884719583164 0 0 0
49 1 2 0 44.10930225559479 0.7349372499031458 -70.19390988139003 0 0 0
50 1 2 0 39.822329670369534 1.0140658653769863 -68.88576587948704 0 0 0
51 1 2 0 39.39456861090183 -0.21856963061300738 -73.22263640052022 0 0 0
52 1 2 0 43.62095708651366 -0.1459025968996911 -74.46541058030135 0 0 0
53 1 2 0 40.329097868069724 -3.303436229219615 -73.94427983420499 0 0 0
54 1 2 0 41.17660384738261 -1.0384099273606149 -77.80214005816964 0 0 0
55 1 2 0 38.266741816337024 -4.426688533154552 -78.50735324979776 0 0 0
56 1 2 0 42.20696962693345 -2.750939908063269 -79.39338034027531 0 0 0
57 1 2 0 43.20140156426465 0.11836587565801585 -82.70294483134913 0 0 0
58 1 2 0 43.371391628148466 -0.3106262999087217 -78.29684864515843 0 0 0
59 1 2 0 44.71592412052946 4.0061378890548305 -78.36407123224198 0 0 0
60 1 2 0 47.73427110140984 4.565512593570519 -75.15340207206653 0 0 0
61 1 2 0 52.068398428979854 4.45415223127404 -73.79826557530089 0 0 0
62 1 2 0 52.00628110886635 1.4259973572638238 -70.445249558869 0 0 0
63 1 2 0 54.022319926299915 5.40245348184712 -69.4624522194693 0 0 0
64 1 2 0 57.13246577343567 8.375259597868169 -70.29487985083448 0 0 0
65 1 2 0 58.22591610587653 7.499423222080342 -65.94323978101413 0 0 0
66 1 2 0 60.54299211412681 6.997234412961237 -62.21495428860093 0 0 0
67 1 2 0 62.38727871751472 10.906142834893801 -62.67172120188373 0 0 0
68 1 2 0 58.08065855131572 12.497726931523522 -62.436681406916556 0 0 0
69 1 2 0 58.8142645980164 15.671971750379727 -65.449770504343 0 0 0
70 1 2 0 61.65241445943998 14.812734311737355 -62.22635358970909 0 0 0
71 1 2 0 61.60367285867161 17.17491181382316 -58.57216667056979 0 0 0
72 1 2 0 61.09590861749084 21.641937279549982 -59.08314356640817 0 0 0
73 1 2 0 62.72181730155319 19.02738725783744 -55.88416619602773 0 0 0
74 1 2 0 62.867229853131974 17.957543530238077 -51.46174658142756 0 0 0
75 1 2 0 65.61551476404874 21.390342367491634 -52.707089084812395 0 0 0
76 1 2 0 67.41521741753807 25.54159456793269 -52.7054719019412 0 0 0
77 1 2 0 68.9879711067771 27.880779033784982 -56.25356247521938 0 0 0
78 1 2 0 71.84897025853779 30.50163044423617 -53.82118612744961 0 0 0
79 1 2 0 73.42473268097827 26.093494555812452 -53.56660193781114 0 0 0
80 1 2 0 70.50275151426433 27.20789984514468 -50.25312723968163 0 0 0
81 1 2 0 66.48568275950493 25.723832633068163 -51.33708956873676 0 0 0
82 1 2 0 69.51948396122913 26.55184175386354 -48.03717511397318 0 0 0
83 1 2 0 70.52419078109392 22.322555920563214 -49.07036121168033 0 0 0
84 1 2 0 69.51681820380605 18.4290875203241 -51.20945615743237 0 0 0
85 1 2 0 67.77805799876975 14.853524037767318 -52.87225303713889 0 0 0
86 1 2 0 66.46280310858523 19.1966986681569 -52.39407227110654 0 0 0
87 1 2 0 64.09234326117951 15.475122019987564 -52.544345306156956 0 0 0
88 1 2 0 68.34820263260858 14.025266896349606 -52.11155876237609 0 0 0
89 1 2 0 65.58786797145642 17.031876338916 -50.28097581749141 0 0 0
90 1 2 0 67.65135866389024 13.021569825425146 -49.31998370492704 0 0 0
91 1 2 0 67.16412945803123 9.558955247890157 -46.682712528206515 0 0 0
92 1 2 0 69.6527282760512 13.001628212128367 -48.454274808459694 0 0 0
93 1 2 0 66.01907565030533 12.525618027604978 -51.12000085175829 0 0 0
94 1 2 0 64.58413228620739 15.089386562628937 -48.102539625845154 0 0 0
95 1 2 0 63.15997284685479 18.731029994800995 -45.69784882889259 0 0 0
96 1 2 0 63.884545260613145 16.257074081329193 -42.18076626404826 0 0 0
97 1 2 0 66.30937785955223 17.75963650826713 -38.74223751209551 0 0 0
98 1 2 0 66.97486213407626 18.563430595137405 -34.36050740354328 0 0 0
99 1 2 0 69.92743645560631 21.270642801209473 -32.224306640330674 0 0 0
100 1 2 0 65.8130770746966 20.321506878169455 -33.79651404689793 0 0 0
101 1 2 0 65.88739787229139 17.519727305968413 -30.345120566952286 0 0 0
102 1 2 0 68.70439400645827 18.37012440534077 -27.136561692176933 0 0 0
103 1 2 0 72.48573600405513 19.485283300017997 -29.38597342414903 0 0 0
104 1 2 0 71.41711608257181 21.13611819881362 -25.374664430947927 0 0 0
105 1 2 0 71.38110465127743 23.662725189758753 -29.014346341158877 0 0 0
106 1 2 0 71.60196223710709 19.174842881213408 -28.896167396057457 0 0 0
107 1 2 0 71.56393417576479 15.761561825790537 -31.728470374858563 0 0 0
108 1 2 0 70.66691703048912 19.424662805918924 -29.42979167830732 0 0 0
109 1 2 0 74.52366545468504 21.73476111258041 -29.249559005660398 0 0 0
110 1 2 0 70.15407288225663 20.91878095120682 -28.706769762499228 0 0 0
111 1 2 0 66.1596679508201 19.24591664442139 -29.883667588895545 0 0 0
112 1 2 0 68.85846530253158 16.435393357844294 -32.14761652217384 0 0 0
113 1 2 0 69.24614853025655 15.409907119627091 -27.808489787044255 0 0 0
114 1 2 0 70.20641068145241 14.541721775278067 -23.61221357574403 0 0 0
115 1 2 0 66.90350135229187 16.41674841113599 -25.74047838243579 0 0 0
116 1 2 0 68.72478519408828 12.733093678335381 -24.137804997616286 0 0 0
117 1 2 0 66.14904420110513 9.120131766527471 -23.612170416119433 0 0 0
118 1 2 0 67.82337329804717 9.696971278693601 -27.687897472053 0 0 0
119 1 2 0 66.05044863514316 5.7876628661908915 -28.839039718060448 0 0 0
120 1 2 0 68.63508610408996 8.827374166166413 -26.653575907127312 0 0 0
121 1 2 0 67.4725372744676 4.582932405345951 -26.270818830251315 0 0 0
122 1 2 0 70.37855400435673 7.938569353948868 -25.58932844234548 0 0 0
123 1 2 0 68.57067012820326 8.083263864417395 -21.36950507127622 0 0 0
124 1 2 0 71.87124454184988 7.3247785531093434 -18.46435309876071 0 0 0
125 1 2 0 75.04246684049123 5.8645843488726985 -21.075185856470018 0 0 0
126 1 2 0 73.98060149870209 1.596594834812136 -19.809713160384245 0 0 0
127 1 2 0 71.94441291431046 5.668315530299967 -19.782840499989 0 0 0
128 1 2 0 71.86483587954324 9.94020295984978 -18.105308470208794 0 0 0
129 1 2 0 68.32067937100426 12.253703352426458 -17.00462856334456 0 0 0
130 1 2 0 68.8154833885578 10.84835525048814 -12.846558839009814 0 0 0
131 1 2 0 70.30904750991316 12.451262561106464 -8.995138554005147 0 0 0
132 1 2 0 67.68094374356933 9.516968591767428 -6.7378695566962135 0 0 0
133 1 2 0 65.91266477158088 5.290640539734125 -6.972726382576431 0 0 0
134 1 2 0 68.23774572397205 8.965442111341718 -8.601740572647977 0 0 0
135 1 2 0 66.7995373362352 7.869656614621652 -4.483036423783399 0 0 0
136 1 2 0 67.57388098796443 6.186638607697906 -8.670355309915104 0 0 0
137 1 2 0 70.23496072082197 9.61328626476321 -7.9829928525386205 0 0 0
138 1 2 0 71.72787108969288 7.6909318848820485 -4.30236711485561 0 0 0
139 1 2 0 67.71285927186135 8.975187261457082 -5.882958547273966 0 0 0
140 1 2 0 72.1812660454676 8.737460691253037 -4.384780502571523 0 0 0
141 1 2 0 71.15629044314534 13.084798221186587 -5.659846703031476 0 0 0
142 1 2 0 71.73574398184832 12.34437228077622 -1.3749080149132886 0 0 0
143 1 2 0 68.64394318313815 10.130268669482678 -3.67629497093833 0 0 0
144 1 2 0 64.02794584817006 10.417479183123357 -3.666981915526111 0 0 0
145 1 2 0 62.04151710282658 9.358115027479906 0.22971108931299328 0 0 0
146 1 2 0 58.05970653652911 11.252436839158724 -0.8891279291386155 0 0 0
147 1 2 0 61.67625517602405 11.006340625447468 1.6912424836431308 0 0 0
148 1 2 0 63.02478354554676 9.631000611379024 -2.4156559009526504 0 0 0
149 1 2 0 65.71809935731049 12.903972000864421 -1.2322677027306734 0 0 0
150 1 2 0 64.98678047331283 17.071874296177036 0.18319647316401316 0 0 0
151 1 2 0 64.07344255532902 12.91058249590934 -1.5716279062587735 0 0 0
152 1 2 0 61.99071234856741 8.835519214184702 -1.262414381519174 0 0 0
153 1 2 0 59.81784564169637 9.739407246101669 -4.939742112045941 0 0 0
154 1 2 0 55.457701667763 9.437275183936443 -5.508945845755884 0 0 0
155 1 2 0 57.5082153425761 12.526295264202538 -2.8592981095679617 0 0 0
156 1 2 0 54.52075333595207 13.534631164308655 0.35839097918973994 0 0 0
157 1 2 0 51.21832187288285 16.722768883129756 0.5947170470804858 0 0 0
158 1 2 0 50.33601798337663 20.021954614907656 -2.2357706797646824 0 0 0
159 1 2 0 45.820136918827096 19.565685366026603 -3.3038421525669115 0 0 0
160 1 2 0 44.06891827967315 15.891736561804748 -4.97987364990013 0 0 0
161 1 2 0 42.85627158255215 13.71441341407561 -8.857609030432865 0 0 0
162 1 2 0 42.232768562620535 15.717858618962483 -4.864397688777873 0 0 0
163 1 2 0 42.4393948336698 16.26905378729612 -0.5456376693151196 0 0 0
164 1 2 0 43.53798250448953 12.370192154057014 -2.145133585364573 0 0 0
165 1 2 0 39.52321903264858 14.183933876207998 -3.1638552841961993 0 0 0
166 1 2 0 36.27573369343816 13.265855801787588 0.09944557673851857 0 0 0
167 1 2 0 32.29705150665581 12.810584942958931 1.9642748145290376 0 0 0
168 1 2 0 27.788193644623323 13.025300492115486 1.596491312686687 0 0 0
169 1 2 0 31.334205860096308 14.452712940566373 -0.6462768545216315 0 0 0
170 1 2 0 34.64180801928132 12.807137584748519 -3.260663194166665 0 0 0
171 1 2 0 39.04517747294136 12.854320237453082 -3.339257068638071 0 0 0
172 1 2 0 38.08946651893179 12.102858705168364 0.9079274731869414 0 0 0
173 1 2 0 35.15351203370605 12.270845484760738 4.078254820198483 0 0 0
174 1 2 0 38.49914498246903 13.204927150004739 6.79972962080324 0 0 0
175 1 2 0 42.23090892002323 14.659527231246507 5.268186890114513 0 0 0
176 1 2 0 39.91037130660328 16.554565572655868 8.640985759238824 0 0 0
177 1 2 0 38.60351029910796 17.696225762680196 12.893962680047252 0 0 0
178 1 2 0 41.100229100937355 20.0374007947462 9.885510421250823 0 0 0
179 1 2 0 41.195892985616 21.548086716904248 14.104441384801154 0 0 0
180 1 2 0 36.77350732482408 21.49052030712644 14.829500779302679 0 0 0
181 1 2 0 37.48793914907466 24.628261442628027 17.987023490772682 0 0 0
182 1 2 0 40.76450634316212 27.72253043663719 17.385960914925636 0 0 0
183 1 2 0 37.91344865918471 30.998370862303712 17.308609856252847 0 0 0
184 1 2 0 38.796830595580005 32.351904511810034 21.414213135351222 0 0 0
185 1 2 0 36.47430238795288 28.9495692786528 23.42662364250703 0 0 0
186 1 2 0 32.32741155644629 27.642394273051487 24.731020415379913 0 0 0
187 1 2 0 35.228635987483756 26.913739587843057 21.51521664954987 0 0 0
188 1 2 0 34.94998539841306 30.156522277694073 24.394893341750127 0 0 0
189 1 2 0 35.838222129857805 33.972826787240855 26.609564064610037 0 0 0
190 1 2 0 33.4971586653191 35.1308933179582 23.10665297503378 0 0 0
191 1 2 0 32.45184553162353 31.171867648313526 21.30727246281502 0 0 0
192 1 2 0 36.49873669084889 32.60182384121065 22.541357115392593 0 0 0
193 1 2 0 32.603832657422736 34.56821153928314 22.509312151536886 0 0 0
194 1 2 0 33.311489777905365 38.86199250507362 21.060093742937326 0 0 0
195 1 2 0 33.09197754829507 42.911284915273676 23.070945328577533 0 0 0
196 1 2 0 30.31031357145053 44.90535611921578 20.411933602555166 0 0 0
197 1 2 0 26.28228423458768 46.38996577267057 21.788812968155547 0 0 0
198 1 2 0 28.516269203705246 48.89104411346438 18.963608167013426 0 0 0
199 1 2 0 27.31933236181237 50.05356048650019 14.726379221822507 0 0 0
200 1 1 0 27.259665421843614 51.97775407425824 18.71926794231141 0 0 0

Velocities

1 0.0018656421780333526 0.0038874057295984316 -0.005607625898802315
2 -0.00036790618434080725 -4.592476228555789e-05 -0.0014016904787681318
3 -0.003144797928093896 0.002869400679363797 -0.0018833071956093762
4 -0.0028228715989804956 -4.5183776820419464e-05 -0.0014307007728786684
5 0.0010697724191409367 -0.0007839844009617517 -0.0005844677274632271
6 -0.0026187301793845824 -0.0004203662902059421 0.0020946866599572795
7 -0.0013451334492801178 0.0013549213349332938 0.0013929631363086292
8 0.0009721676951397423 0.00024414346703109397 -0.0018749305112897162
9 -0.00012094991433591 -0.0010586985842240318 -0.00042001838582647486
10 -0.0005887838767694167 0.0011332850718209296 0.0020404780804540337
11 0.0009590160226097518 0.0027493393744056787 -0.00010067916755095181
12 0.0014718444373646741 0.0007043899857718125 -0.00025941841875828264
13 0.0013672017017290327 0.0013049045027903124 -0.000535705203156903
14 -0.0008410677860175504 -0.0013349980829235766 -0.001005460565588684
15 0.0007137547796398087 -0.0006482770149672196 -0.0014960390288763618
16 -0.0011981123040797218 0.00026694447428065725 0.0005868318621065898
17 -0.0021382251221154554 -0.0007600600815061014 -0.0016184288287501686
18 2.9894935390384952e-05 -0.0011777900860453093 -0.0007855084001023442
19 0.001340515021651002 0.003152084389300811 -0.0007817532036507807
20 0.0012290133948142123 -0.0007067593781086713 -0.0032578099064768163
21 0.00040418050959077265 -0.00010695159619669284 -0.0011154803701716933
22 0.0010011514873245109 0.0043961239973463 0.001028532853750137
23 -0.002416866798743594 -0.00027567612397467713 0.0003970553740931263
24 -0.00031097645474785973 0.000925923443980706 0.001579301348635903
25 -0.0010478971848191091 0.0010883799074272087 -0.0005177237349771795
26 -0.0010431211378772907 0.001906954611710359 -5.0800026106562334e-05
27 3.3701929331281886e-05 0.0003767144421549963 0.0011715615476325136
28 -0.0017936411899621904 -0.0010319393437605749 -0.0006684619592516859
29 0.0033406801606751533 -0.0023626717326441387 0.00021849396878615882
30 -0.0011996278806521512 0.0010576300191892543 -0.0027756899575033865
31 0.0008606276439199941 0.002630585103243499 -0.001090754247015735
32 0.00043563197132135046 -0.003327400796165222 0.0015437383280551685
33 0.0017126227185248965 0.00044146727854984825 0.0006599720854757354
34 0.0022186209864887467 0.0011035407413017807 -0.000352604132832782
35 -3.797143068725983e-05 -0.0029248462195438567 0.0005167535957165069
36 -0.00013686306352358443 -0.00047757032422442056 0.0032364141367309585
37 0.003023458148718145 0.0007494253376334084 0.001370631390277634
38 -0.00038828113367818775 0.0002813770130873711 0.0009319029820101237
39 0.0005189342591117418 -0.001564513206092921 -0.0013511054742542852
40 -1.4957147565052692e-05 -0.0031524421659507623 -0.0003024764219628123
41 0.0036188164824091243 0.0011933358952187288 0.0037187155452149236
42 0.0038188514927475618 -9.014468160502627e-05 0.001965424702229699
43 0.00017778397984800974 -0.0033289479513283265 0.0007594464584579372
44 -0.002335827258202468 0.001345642456298563 -0.00018159356211830827
45 -0.0024653853195750683 -9.025904749512951e-05 -0.0017685460824717796
46 0.0022174109354905817 0.0024741363908425728 -0.0012141639238394803
47 -0.00045440068657694144 -0.0006431051176030256 -0.0018482106674423543
48 6.548499477569102e-05 -0.0005589899855981454 -0.0017648811952624612
49 -0.0018129618190955152 0.0030689340243126115 0.001992942649260351
50 -0.002339997719299501 0.00014341456296544807 0.002985511006912112
51 -0.0022100118418306946 0.0013014920069686724 -0.004423860388187307
52 -0.0006594988184179515 0.00016868164377981955 -0.001395242364770631
53 0.001943584500775462 -0.003887152781252981 0.002574338529849498
54 0.0003654234903317778 -0.0007259156370642124 -0.0009907889670607883
55 -2.938826981104685e-05 -0.0006158983729370748 0.00428530120781198
56 -0.002214114305377895 -0.0017911640365524718 -0.0018913782496221654
57 9.97695684538439e-05 0.00021968980185135232 0.0009063959116385567
58 3.6752344794109655e-05 -0.001776908626700367 -0.0001227741613742366
59 -0.0011352470810903812 0.0033524873135941996 0.0008653663329284537
60 -0.0037555991381978105 -0.000995517238507522 0.0012333832022378075
61 0.0015566977923539601 -0.0033234568031225006 -0.0006606595776083515
62 -0.0035352054867754928 0.0004720749574142082 -0.00046743985381433043
63 -0.003123599299463326 -0.000909658995805317 -0.00315940020465852
64 -0.0010551816867104091 -0.0016278793765665826 -0.0016882922820077183
65 0.0024729405913517994 0.00013270782379989354 -0.0018790655597275589
66 -0.003222530639000758 0.0012373693679712655 0.002060510987845853
67 -0.003273529479148578 0.0005145348573942483 0.003014247224693912
68 -0.001522529719870584 -0.0017689301521348069 -0.0028002844209489438
69 0.0003100770861566578 0.00025044058382267943 0.0022628197506798166
70 0.0028420302610164946 -0.0001348796021058895 0.0006733035253681308
71 0.001174934353396935 -0.0018576532246762194 -0.0008827463043427571
72 0.0003864016297380069 0.001314092578219378 0.0004050762190982661
73 -0.0037410026100731537 -0.0009846087998077423 0.0018366899364266449
74 0.0035114503307887676 -0.005754545143727051 0.0008188814540849785
75 -0.0006259799118345294 0.0017684296356849372 0.0014888639816144345
76 0.001494070243368761 -0.003970178904171004 -0.0018244158047829452
77 -0.0007536032144912859 -0.0014918231534855732 0.0010217922466947576
78 0.001249478232515641 0.002654508709357745 0.0025971356823326166
79 -0.0020998212326010894 0.0012827319426992727 -0.0007073936910025261
80 -0.002181421873389179 0.0006736258550015954 0.002288887094660449
81 0.0029977419093288617 0.0025207605295637326 -0.004069066395158361
82 -6.915877242300188e-05 -0.0006712157045432841 -0.00010341670061411203
83 0.0006931800214908143 -0.00036836961210889526 -0.0011078697120713973
84 -0.0019147094150869727 -0.0015009355825335883 0.0006233436562401705
85 6.917730848463636e-05 0.00025185157632932203 0.0005170673292237896
86 0.002328828252819529 0.0024562161928710683 -0.00021220390542981896
87 -0.0025096881406014384 0.001450624205355075 0.0007193537698991813
88 0.0021219651565255386 0.0006987278915664937 -0.0009399729116311944
89 0.003524738222490016 -0.0016576037886547506 0.0030125212612702092
90 -0.0002919286994430599 -0.0027293386404258395 -3.793993149207288e-05
91 -0.0022143538892052906 -0.0017291822329635457 0.0015963506024625216
92 -0.00336151152101257 -0.0002115549590306343 -0.0008669274044993532
93 0.00028250501276349345 -0.0012536028786008394 0.0011321837524282323
94 -0.0006443248338157344 -0.0011692540267779412 0.0007047788787745075
95 0.00291256988893792 0.004099233575907238 0.0007358297652941855
96 -0.0016598310988567165 -0.0010350190576361208 -0.0022063080554222164
97 -0.0004310131323439798 -0.0010402437521429906 0.0014373315371640554
98 -0.0009488599072726699 -0.0014007038572956924 -0.0004771737531995144
99 0.0006872046350720334 0.0022566839131517263 0.00014559790565575793
100 -0.0009388812248984629 0.0006114945135278465 0.001042544183175777
101 -0.0007636798798359378 0.0011939642025586537 0.001831759776397928
102 0.0023789687512990416 0.004244832506067083 -0.00020922362227521527
103 0.0003955389174349943 0.0025737132276597396 0.0007370522887806333
104 -0.0004989029219174577 0.0003723723699459317 0.0009485145620252406
105 -0.0008444920530703995 -0.0010650317188985031 0.00012598090536002483
106 -0.00015763487577075578 0.00376855979964948 -0.00036001383164671136
107 0.0004189210435815769 -0.00023435285257313398 0.001145416263223106
108 -0.0009496334675172237 -0.0015979727318382348 0.0021570275894109317
109 0.0012127845775637244 0.0015488482685324296 -0.0013203115906491624
110 0.0017229943521859406 0.0013792635625067406 0.002954726903275686
111 0.001300024921548923 -0.001446087561547982 -0.00033720625087534556
112 -0.0004122065338921895 0.0006428335473240798 0.0016528356959292175
113 0.0006099915088153111 0.00021257520907480391 0.0018506773015239586
114 -0.003087771933796001 -0.005352314667883442 0.0011204608746976403
115 0.00032395917009441443 -0.004598585865904133 0.0028295730849437497
116 0.001457818130085009 -0.00048098084852200043 0.003501310941830925
117 0.0024478297838156833 7.205902940287485e-05 0.00084766072307599
118 -0.0013681641380259499 0.00042487554217612893 -0.0007879640432334263
119 -0.0017382759058378 0.001746860940240619 -0.002221414689265708
120 0.002871732609099125 -0.0004358705382999794 -0.0021255170354550017
121 -0.002139775238952067 -0.0016039306996080286 0.0026536510293644513
122 0.0019840406483957545 0.001214051583888261 0.0016877049363550065
123 0.004552292715426329 0.0007106618399559573 -0.0019789139110581934
124 0.00119787634177419 0.0039819442978707795 0.0023121235308755585
125 0.0009805778115285174 0.0009814888932609068 0.0037200651817345426
126 0.0020165268390392147 -5.3361724653950445e-05 0.003670407408272392
127 -0.0020756747451434704 0.0006496583428784511 -0.000465209237868157
128 -0.0003888144142177875 -1.2008979648496318e-05 -0.002383800086105762
129 0.0005397243428384916 -0.0015327992099067407 0.00251766337718165
130 0.0011494271824429717 -0.004399173515161292 -0.0022038619358694124
131 -0.00019124584479291262 0.0021189672989134203 -0.0006969444022715316
132 0.002308250011689281 -0.0022141142544479047 0.001515141383429584
133 -0.0010504722742668807 -0.0013163571327687762 0.00043234135604864357
134 -0.001225899430062595 -0.00047946630451727067 0.0012732472032373587
135 -0.003018490331380717 -0.0020883174288811044 -0.0007018805045753092
136 0.00029165078340379893 -0.00019139337492905172 0.0008394391898301225
137 0.0006017381860623846 0.0023114599664498755 -0.0011021404560545628
138 -0.0010544796859126278 0.001755313203117014 0.00024472509603127115
139 -0.0002706332668807686 0.0015047825749550307 -0.0013020979935409664
140 -0.0007329225517284513 -0.0037374835529307934 -0.0020299109184527125
141 0.0012025715206830279 4.190731011547137e-05 0.0007675386027964308
142 -0.0004253510680343485 0.000482950292249044 0.002328927263407993
143 0.001953798801499172 -0.003795495057668316 -0.0001656156800409608
144 0.000630633519963478 0.0014081802252872793 -0.0002516919653621601
145 -0.0026791618699086935 0.0018587668355074857 -0.0007652783866687311
146 0.00040777858887408017 -0.0005560767569692815 -0.0024225086348847232
147 0.0005573750475528893 0.0017708687841620548 0.0017751229222919788
148 -0.0009549769956948383 0.0031067311494894423 0.0007731190419955303
149 -0.00045022952926715513 0.003937931360511776 -0.0029077047355284954
150 -0.0006197346511823908 0.00010617886399042792 0.0007243512324077505
151 0.0031546384792836457 -0.0007191557279618253 0.001300523424096628
152 0.0018804809713495938 0.00011943285416424892 -0.003043580384692911
153 0.000678625082573411 -0.0006233169282998712 -0.0007344057341359458
154 5.4761680466516846e-05 0.00184724522999184 -0.003122413872830149
155 0.001044928095410351 -0.0018088389745068835 0.0019170377799235018
156 0.0005323529015013646 -0.0019488903715624885 0.0014234354045734765
157 -0.0009734857617841808 0.00016019255713475898 -0.0009994967704864586
158 0.0009861443411859248 -0.002146301155433989 -0.0025888350398698716
159 0.0007265759239665743 -0.0021696204800883113 -0.0025478783603690644
160 -0.001050160832436259 -0.003634052087011242 -0.0002719715654033553
161 0.00048144461098239015 0.0002528317074807529 -0.0005414446084065232
162 -0.001808522926016046 0.0007186023216398845 0.0006623361665015954
163 0.0028135852792771495 -0.001304146594580312 -0.0006042161150320949
164 0.004380768810967708 0.0028273382758192563 0.00044173646785005934
165 0.0011974614884709453 -0.0006512650439540414 0.00204587479492649
166 0.0022486001832171644 -0.0013998311721260686 0.0004130034429828301
167 -0.002151485840895972 0.00179698176510091 -0.0019596833387913004
168 0.000268012875091461 0.0018785621171746704 0.00019190912036611717
169 -0.0020464506106364494 -0.0029606389316181197 -0.0017223738635481986
170 -0.0022839873508783484 -0.0014456053739361934 -0.00010741069581964645
171 -0.0025811958341334937 -0.0008549707274136728 -0.0017853526397924439
172 0.0020823982968177323 -0.0013173900976166076 -0.0007377686323183922
173 -0.002651740307920607 0.0014864146117276457 -0.0008204999348534251
174 -0.0005021541694599198 0.0010969689518806538 -0.0011345566780021625
175 -0.0015711160045742839 0.0015762551122221482 0.002779708607154628
176 -0.0015413269131738054 -0.00010502386162027487 -0.0004858248211098768
177 -0.002082980684712147 0.002789023049650599 0.0003996147815285268
178 0.0006281975587712069 0.0002983390099530724 0.0011605997402359053
179 0.0013781176287407024 0.002036839541191146 -0.0014315831370520155
180 -0.0001075064156934167 0.0035799601326773965 -0.0022548070855986087
181 0.001037127508330109 0.001056510374339268 0.001982300648305449
182 0.0007021620314134739 0.0015068030060998514 -0.0009549832049299424
183 -0.00011871830966970394 -0.002155046027234832 0.00023786545514650314
184 0.00010621217681145281 -0.0012445448663121457 -0.0009263170975379836
185 -0.00019405040353282074 -0.002156475942123571 0.0013038551202018468
186 0.0023197126645863406 -0.0023363936274535015 -0.0008231141208547697
187 -0.0009816553034731068 0.0003210188839054561 -0.0029385672288877287
188 0.0011612829163498064 0.0010744325495060172 0.002020696429291933
189 -0.00021193897190816747 -0.0006874896028384636 -0.003243088544144995
190 -0.0033628693780443425 0.0014013307499019382 -0.001380356282133979
191 3.4768753062472423e-05 -0.0036922808739663277 -0.0005631033461072422
192 0.0018933307397808502 0.0011186138416640597 0.00026430481154351385
193 -0.0028943112333676352 0.00027306773698010215 -0.0023530818073889876
194 0.002984026183760908 -0.001131944359148466 -0.002227446124031995
195 0.0006321321216898849 -0.00043022991642152153 2.834335319339176e-05
196 -0.0025887762958684353 0.0035422779214399395 0.0012162877807321943
197 0.00010812540035257618 2.1407242249259295e-05 -0.00093315329067092
198 0.0025540790528985734 -0.0014979105770357595 -0.003122279552743467
199 -0.0015660993330636282 -0.0010006747405019193 0.00380130747125485
200 0.002363855317222876 0.0004719942478602818 0.00133889973024726

Bonds

1 1 1 2
2 1 2 3
3 1 3 4
4 1 4 5
5 1 5 6
6 1 6 7
7 1 7 8
8 1 8 9
9 1 9 10
10 1 10 11
11 1 11 12
12 1 12 13
13 1 13 14
14 1 14 15
15 1 15 16
16 1 16 17
17 1 17 18
18 1 18 19
19 1 19 20
20 1 20 21
21 1 21 22
22 1 22 23
23 1 23 24
24 1 24 25
25 1 25 26
26 1 26 27
27 1 27 28
28 1 28 29
29 1 29 30
30 1 30 31
31 1 31 32
32 1 32 33
33 1 33 34
34 1 34 35
35 1 35 36
36 1 36 37
37 1 37 38
38 1 38 39
39 1 39 40
40 1 40 41
41 1 41 42
42 1 42 43
43 1 43 44
44 1 44 45
45 1 45 46
46 1 46 47
47 1 47 48
48 1 48 49
49 1 49 50
50 1 50 51
51 1 51 52
52 1 52 53
53 1 53 54
54 1 54 55
55 1 55 56
56 1 56 57
57 1 57 58
58 1 58 59
59 1 59 60
60 1 60 61
61 1 61 62
62 1 62 63
63 1 63 64
64 1 64 65
65 1 65 66
66 1 66 67
67 1 67 68
68 1 68 69
69 1 69 70
70 1 70 71
71 1 71 72
72 1 72 73
73 1 73 74
74 1 74 75
75 1 75 76
76 1 76 77
77 1 77 78
78 1 78 79
79 1 79 80
80 1 80 81
81 1 81 82
82 1 82 83
83 1 83 84
84 1 84 85
85 1 85 86
86 1 86 87
87 1 87 88
88 1 88 89
89 1 89 90
90 1 90 91
91 1 91 92
92 1 92 93
93 1 93 94
94 1 94 95
95 1 95 96
96 1 96 97
97 1 97 98
98 1 98 99
99 1 99 100
100 1 100 101
101 1 101 102
102 1 102 103
103 1 103 104
104 1 104 105
105 1 105 106
106 1 106 107
107 1 107 108
108 1 108 109
109 1 109 110
110 1 110 111
111 1 111 112
112 1 112 113
113 1 113 114
114 1 114 115
115 1 115 116
116 1 116 117