# LAMMPS data file written by python

62342 atoms
3 atom types
149 bonds
1 bond types
148 angles
1 angle types
147 dihedrals
1 dihedral types

-95.0000 95.0000 xlo xhi
-95.0000 95.0000 ylo yhi
-95.0000 95.0000 zlo zhi


Masses

1 72  # E
2 72  # C
3 72  # W

Atoms  # full

1 1 1 0.0 -4.269300 14.011555 1.510895
2 1 2 0.0 -5.054696 11.656596 -2.218411
3 1 2 0.0 -8.818112 10.453802 -0.106449
4 1 2 0.0 -12.121251 8.817409 -2.652404
5 1 2 0.0 -7.709611 9.026457 -1.901316
6 1 2 0.0 -4.736071 6.103049 -3.539043
7 1 2 0.0 -7.076288 3.350456 -6.188008
8 1 2 0.0 -4.901904 2.247345 -9.946412
9 1 2 0.0 -8.205566 2.170034 -12.971348
10 1 2 0.0 -7.991676 1.565008 -17.405150
11 1 2 0.0 -11.600277 1.787494 -20.050693
12 1 2 0.0 -8.896651 5.311877 -19.467998
13 1 2 0.0 -13.373253 5.139309 -19.493684
14 1 2 0.0 -14.567431 4.035719 -15.319187
15 1 2 0.0 -13.875913 -0.054439 -13.627204
16 1 2 0.0 -9.591972 -1.331408 -13.331231
17 1 2 0.0 -9.933312 -3.485453 -9.417924
18 1 2 0.0 -12.801258 -0.263268 -8.208458
19 1 2 0.0 -8.717625 -2.034070 -7.699929
20 1 2 0.0 -8.431293 -4.272703 -11.569934
21 1 2 0.0 -12.006189 -2.525440 -13.628475
22 1 2 0.0 -9.712106 -6.068933 -15.128891
23 1 2 0.0 -11.828763 -2.392581 -16.569237
24 1 2 0.0 -10.431917 -6.244919 -14.758517
25 1 2 0.0 -11.743217 -2.473982 -12.726050
26 1 2 0.0 -11.269345 -4.832412 -16.505422
27 1 2 0.0 -6.933477 -3.728414 -16.733105
28 1 2 0.0 -10.393234 -6.531348 -17.227113
29 1 2 0.0 -11.323633 -8.866191 -20.935652
30 1 2 0.0 -8.809565 -8.689933 -17.231763
31 1 2 0.0 -7.163485 -8.630811 -21.397975
32 1 2 0.0 -11.132672 -10.512309 -22.278839
33 1 2 0.0 -10.656619 -6.073044 -21.909110
34 1 2 0.0 -15.133904 -5.934402 -21.980521
35 1 2 0.0 -15.259230 -9.852460 -19.811762
36 1 2 0.0 -11.062840 -9.622730 -18.260009
37 1 2 0.0 -7.604183 -12.458710 -18.515564
38 1 2 0.0 -10.774910 -15.621111 -18.642484
39 1 2 0.0 -7.367640 -13.219862 -17.000865
40 1 2 0.0 -8.620752 -12.265652 -21.194860
41 1 2 0.0 -8.646197 -16.020056 -18.750643
42 1 2 0.0 -4.222773 -16.691951 -18.979285
43 1 2 0.0 -7.672515 -18.426247 -16.707305
44 1 2 0.0 -5.889451 -20.043913 -20.485431
45 1 2 0.0 -6.068090 -24.498341 -20.042080
46 1 2 0.0 -4.987523 -23.417672 -24.253365
47 1 2 0.0 -4.116791 -27.385184 -26.143094
48 1 2 0.0 -0.259330 -25.250909 -25.346055
49 1 2 0.0 4.088787 -26.175637 -25.902072
50 1 2 0.0 8.318938 -25.283363 -27.076834
51 1 2 0.0 11.823700 -26.547607 -24.589118
52 1 2 0.0 12.456550 -30.499223 -22.575505
53 1 2 0.0 12.833813 -26.467272 -20.659402
54 1 2 0.0 13.248573 -22.015848 -20.947836
55 1 2 0.0 17.693054 -21.456538 -21.012371
56 1 2 0.0 22.103447 -21.677028 -20.257246
57 1 2 0.0 21.993394 -24.697327 -23.564221
58 1 2 0.0 18.804336 -27.829215 -23.261581
59 1 2 0.0 15.617875 -25.511398 -21.129777
60 1 2 0.0 11.154016 -25.292555 -21.440381
61 1 2 0.0 8.508840 -27.587137 -24.234720
62 1 2 0.0 6.331889 -27.368944 -20.325286
63 1 2 0.0 3.842413 -29.577271 -23.324653
64 1 2 0.0 7.380080 -31.386912 -21.255713
65 1 2 0.0 6.218167 -27.343521 -19.715794
66 1 2 0.0 6.524382 -24.714554 -23.330371
67 1 2 0.0 8.101299 -21.959776 -26.491847
68 1 2 0.0 10.902589 -22.154416 -23.001103
69 1 2 0.0 6.528479 -22.868130 -22.346753
70 1 2 0.0 6.057544 -26.814833 -20.279834
71 1 2 0.0 10.304693 -26.130436 -19.029346
72 1 2 0.0 10.151154 -22.554161 -16.335448
73 1 2 0.0 6.874466 -25.272265 -14.940590
74 1 2 0.0 7.124920 -21.005285 -16.282438
75 1 2 0.0 2.836673 -19.924351 -15.566256
76 1 2 0.0 6.839549 -20.161256 -13.568442
77 1 2 0.0 8.406875 -18.011738 -9.963797
78 1 2 0.0 3.946061 -17.899454 -10.362465
79 1 2 0.0 7.217693 -19.227336 -13.119919
80 1 2 0.0 5.241038 -19.809693 -17.097871
81 1 2 0.0 4.070224 -22.492554 -20.489309
82 1 2 0.0 4.190431 -26.553590 -18.601470
83 1 2 0.0 7.542111 -23.854411 -19.846893
84 1 2 0.0 4.465554 -20.788689 -18.748465
85 1 2 0.0 -0.014105 -20.838158 -18.773260
86 1 2 0.0 -3.576019 -20.405093 -16.090795
87 1 2 0.0 -7.647032 -20.926791 -17.886647
88 1 2 0.0 -12.090346 -21.331661 -17.482360
89 1 2 0.0 -16.532424 -20.781623 -17.293152
90 1 2 0.0 -19.465283 -19.335765 -14.230762
91 1 2 0.0 -21.463748 -16.830403 -11.100316
92 1 2 0.0 -18.741237 -17.006064 -14.653832
93 1 2 0.0 -14.653322 -16.828677 -16.478081
94 1 2 0.0 -18.706669 -15.041521 -15.809612
95 1 2 0.0 -19.143599 -18.399184 -12.876083
96 1 2 0.0 -14.928781 -18.219524 -11.368294
97 1 2 0.0 -10.497274 -17.617202 -11.104935
98 1 2 0.0 -6.812553 -17.773806 -13.648299
99 1 2 0.0 -8.839849 -13.835487 -14.319202
100 1 2 0.0 -4.364325 -13.645433 -14.256239
101 1 2 0.0 -5.337588 -13.406827 -9.889750
102 1 2 0.0 -9.092729 -15.649994 -8.921496
103 1 2 0.0 -5.788125 -13.150851 -7.217305
104 1 2 0.0 -6.742484 -16.761250 -4.742508
105 1 2 0.0 -11.181787 -16.290443 -4.366569
106 1 2 0.0 -12.712790 -17.754011 -0.418860
107 1 2 0.0 -14.157986 -20.656536 2.672605
108 1 2 0.0 -9.820448 -20.740199 3.790264
109 1 2 0.0 -13.954231 -19.038027 3.498974
110 1 2 0.0 -18.384355 -19.628462 3.808461
111 1 2 0.0 -21.988037 -18.658094 1.330102
112 1 2 0.0 -18.429696 -15.986430 1.850509
113 1 2 0.0 -15.028169 -18.737268 2.816380
114 1 2 0.0 -16.864611 -15.012249 4.496295
115 1 2 0.0 -13.069471 -17.098620 3.349837
116 1 2 0.0 -8.830135 -18.532715 3.554287
117 1 2 0.0 -6.863164 -17.757296 7.503990
118 1 2 0.0 -8.248755 -14.253624 5.080188
119 1 2 0.0 -12.236447 -14.649574 3.077206
120 1 2 0.0 -10.309923 -15.076796 -0.944782
121 1 2 0.0 -7.680726 -18.634900 -1.650202
122 1 2 0.0 -3.986562 -20.897320 -0.507832
123 1 2 0.0 -8.022375 -22.738177 0.119748
124 1 2 0.0 -11.444775 -20.002500 -0.814944
125 1 2 0.0 -7.220838 -19.529229 -2.230843
126 1 2 0.0 -3.853407 -20.708290 -4.940201
127 1 2 0.0 0.597845 -21.201491 -5.056399
128 1 2 0.0 3.258859 -22.881990 -8.244710
129 1 2 0.0 -0.869546 -24.616722 -8.112907
130 1 2 0.0 3.368768 -26.063396 -7.993615
131 1 2 0.0 6.210602 -27.933841 -5.078857
132 1 2 0.0 10.280085 -26.176196 -4.430480
133 1 2 0.0 6.307685 -27.615953 -5.919620
134 1 2 0.0 10.723465 -28.014603 -5.277462
135 1 2 0.0 6.255273 -27.792390 -5.040222
136 1 2 0.0 1.976713 -26.474106 -4.877597
137 1 2 0.0 3.935116 -24.699544 -1.260141
138 1 2 0.0 -0.516026 -24.248434 -1.027262
139 1 2 0.0 3.388090 -26.006938 0.290290
140 1 2 0.0 -0.486235 -23.757625 0.314734
141 1 2 0.0 3.993695 -23.771103 0.293657
142 1 2 0.0 0.213381 -22.020669 1.941566
143 1 2 0.0 0.062322 -18.892519 -1.261910
144 1 2 0.0 4.299339 -17.966393 -0.139244
145 1 2 0.0 0.247730 -16.101875 0.283175
146 1 2 0.0 4.727690 -16.117151 0.271896
147 1 2 0.0 0.689785 -17.566209 -1.018820
148 1 2 0.0 3.337275 -18.916258 -4.371217
149 1 2 0.0 7.186820 -16.846702 -3.387173
150 1 1 0.0 4.269300 -14.011555 -1.510895
151 1 3 0.0 -95.000000 -95.000000 -95.000000
152 1 3 0.0 -95.000000 -95.000000 -91.274510
153 1 3 0.0 -95.000000 -95.000000 -87.549020
154 1 3 0.0 -95.000000 -95.000000 -83.823529
155 1 3 0.0 -95.000000 -95.000000 -80.098039
156 1 3 0.0 -95.000000 -95.000000 -76.372549
157 1 3 0.0 -95.000000 -95.000000 -72.647059
158 1 3 0.0 -95.000000 -95.000000 -68.921569
159 1 3 0.0 -95.000000 -95.000000 -65.196078
160 1 3 0.0 -95.000000 -95.000000 -61.470588
161 1 3 0.0 -95.000000 -95.000000 -57.745098
162 1 3 0.0 -95.000000 -95.000000 -54.019608
163 1 3 0.0 -95.000000 -95.000000 -50.294118
164 1 3 0.0 -95.000000 -95.000000 -46.568627
165 1 3 0.0 -95.000000 -95.000000 -42.843137
166 1 3 0.0 -95.000000 -95.000000 -39.117647
167 1 3 0.0 -95.000000 -95.000000 -35.392157
168 1 3 0.0 -95.000000 -95.000000 -31.666667
169 1 3 0.0 -95.000000 -95.000000 -27.941176
170 1 3 0.0 -95.000000 -95.000000 -24.215686
171 1 3 0.0 -95.000000 -95.000000 -20.490196
172 1 3 0.0 -95.000000 -95.000000 -16.764706
173 1 3 0.0 -95.000000 -95.000000 -13.039216
174 1 3 0.0 -95.000000 -95.000000 -9.313725
175 1 3 0.0 -95.000000 -95.000000 -5.588235
176 1 3 0.0 -95.000000 -95.000000 -1.862745
177 1 3 0.0 -95.000000 -95.000000 1.862745
178 1 3 0.0 -95.000000 -95.000000 5.588235
179 1 3 0.0 -95.000000 -95.000000 9.313725
180 1 3 0.0 -95.000000 -95.000000 13.039216
181 1 3 0.0 -95.000000 -95.000000 16.764706
182 1 3 0.0 -95.000000 -95.000000 20.490196
183 1 3 0.0 -95.000000 -95.000000 24.215686
184 1 3 0.0 -95.000000 -95.000000 27.941176
185 1 3 0.0 -95.000000 -95.000000 31.666667
186 1 3 0.0 -95.000000 -95.000000 35.392157
187 1 3 0.0 -95.000000 -95.000000 39.117647
188 1 3 0.0 -95.000000 -95.000000 42.843137
189 1 3 0.0 -95.000000 -95.000000 46.568627
190 1 3 0.0 -95.000000 -95.000000 50.294118
191 1 3 0.0 -95.000000 -95.000000 54.019608
192 1 3 0.0 -95.000000 -95.000000 57.745098
193 1 3 0.0 -95.000000 -95.000000 61.470588
194 1 3 0.0 -95.000000 -95.000000 65.196078
195 1 3 0.0 -95.000000 -95.000000 68.921569
196 1 3 0.0 -95.000000 -95.000000 72.647059
197 1 3 0.0 -95.000000 -95.000000 76.372549
198 1 3 0.0 -95.000000 -95.000000 80.098039
199 1 3 0.0 -95.000000 -95.000000 83.823529
200 1 3 0.0 -95.000000 -95.000000 87.549020
201 1 3 0.0 -95.000000 -95.000000 91.274510
202 1 3 0.0 -95.000000 -95.000000 95.000000
203 1 3 0.0 -95.000000 -90.777778 -95.000000
204 1 3 0.0 -95.000000 -90.777778 -91.274510
205 1 3 0.0 -95.000000 -90.777778 -87.549020
206 1 3 0.0 -95.000000 -90.777778 -83.823529
207 1 3 0.0 -95.000000 -90.777778 -80.098039
208 1 3 0.0 -95.000000 -90.777778 -76.372549
209 1 3 0.0 -95.000000 -90.777778 -72.647059
210 1 3 0.0 -95.000000 -90.777778 -68.921569
211 1 3 0.0 -95.000000 -90.777778 -65.196078
212 1 3 0.0 -95.000000 -90.777778 -61.470588
213 1 3 0.0 -95.000000 -90.777778 -57.745098
214 1 3 0.0 -95.000000 -90.777778 -54.019608
215 1 3 0.0 -95.000000 -90.777778 -50.294118
216 1 3 0.0 -95.000000 -90.777778 -46.568627
217 1 3 0.0 -95.000000 -90.777778 -42.843137
218 1 3 0.0 -95.000000 -90.777778 -39.117647
219 1 3 0.0 -95.000000 -90.777778 -35.392157
220 1 3 0.0 -95.000000 -90.777778 -31.666667
221 1 3 0.0 -95.000000 -90.777778 -27.941176
222 1 3 0.0 -95.000000 -90.777778 -24.215686
223 1 3 0.0 -95.000000 -90.777778 -20.490196
224 1 3 0.0 -95.000000 -90.777778 -16.764706
225 1 3 0.0 -95.000000 -90.777778 -13.039216
226 1 3 0.0 -95.000000 -90.777778 -9.313725
227 1 3 0.0 -95.000000 -90.777778 -5.588235
228 1 3 0.0 -95.000000 -90.777778 -1.862745
229 1 3 0.0 -95.000000 -90.777778 1.862745
230 1 3 0.0 -95.000000 -90.777778 5.588235
231 1 3 0.0 -95.000000 -90.777778 9.313725
232 1 3 0.0 -95.000000 -90.777778 13.039216
233 1 3 0.0 -95.000000 -90.777778 16.764706
234 1 3 0.0 -95.000000 -90.777778 20.490196
235 1 3 0.0 -95.000000 -90.777778 24.215686
236 1 3 0.0 -95.000000 -90.777778 27.941176
237 1 3 0.0 -95.000000 -90.777778 31.666667
238 1 3 0.0 -95.000000 -90.777778 35.392157
239 1 3 0.0 -95.000000 -90.777778 39.117647
240 1 3 0.0 -95.000000 -90.777778 42.843137
241 1 3 0.0 -95.000000 -90.777778 46.568627
242 1 3 0.0 -95.000000 -90.777778 50.294118
243 1 3 0.0 -95.000000 -90.777778 54.019608
244 1 3 0.0 -95.000000 -90.777778 57.745098
245 1 3 0.0 -95.000000 -90.777778 61.470588
246 1 3 0.0 -95.000000 -90.777778 65.196078
247 1 3 0.0 -95.000000 -90.777778 68.921569
248 1 3 0.0 -95.000000 -90.777778 72.647059
249 1 3 0.0 -95.000000 -90.777778 76.372549
250 1 3 0.0 -95.000000 -90.777778 80.098039
251 1 3 0.0 -95.000000 -90.777778 83.823529
252 1 3 0.0 -95.000000 -90.777778 87.549020
253 1 3 0.0 -95.000000 -90.777778 91.274510
254 1 3 0.0 -95.000000 -90.777778 95.000000
255 1 3 0.0 -95.000000 -86.555556 -95.000000
256 1 3 0.0 -95.000000 -86.555556 -91.274510
257 1 3 0.0 -95.000000 -86.555556 -87.549020
258 1 3 0.0 -95.000000 -86.555556 -83.823529
259 1 3 0.0 -95.000000 -86.555556 -80.098039
260 1 3 0.0 -95.000000 -86.555556 -76.372549
261 1 3 0.0 -95.000000 -86.555556 -72.647059
262 1 3 0.0 -95.000000 -86.555556 -68.921569
263 1 3 0.0 -95.000000 -86.555556 -65.196078
264 1 3 0.0 -95.000000 -86.555556 -61.470588
265 1 3 0.0 -95.000000 -86.555556 -57.745098
266 1 3 0.0 -95.000000 -86.555556 -54.019608
267 1 3 0.0 -95.000000 -86.555556 -50.294118
268 1 3 0.0 -95.000000 -86.555556 -46.568627
269 1 3 0.0 -95.000000 -86.555556 -42.843137
270 1 3 0.0 -95.000000 -86.555556 -39.117647
271 1 3 0.0 -95.000000 -86.555556 -35.392157
272 1 3 0.0 -95.000000 -86.555556 -31.666667
273 1 3 0.0 -95.000000 -86.555556 -27.941176
274 1 3 0.0 -95.000000 -86.555556 -24.215686
275 1 3 0.0 -95.000000 -86.555556 -20.490196
276 1 3 0.0 -95.000000 -86.555556 -16.764706
277 1 3 0.0 -95.000000 -86.555556 -13.039216
278 1 3 0.0 -95.000000 -86.555556 -9.313725
279 1 3 0.0 -95.000000 -86.555556 -5.588235
280 1 3 0.0 -95.000000 -86.555556 -1.862745
281 1 3 0.0 -95.000000 -86.555556 1.862745
282 1 3 0.0 -95.000000 -86.555556 5.588235
283 1 3 0.0 -95.000000 -86.555556 9.313725
284 1 3 0.0 -95.000000 -86.555556 13.039216
285 1 3 0.0 -95.000000 -86.555556 16.764706
286 1 3 0.0 -95.000000 -86.555556 20.490196
287 1 3 0.0 -95.000000 -86.555556 24.215686
288 1 3 0.0 -95.000000 -86.555556 27.941176
289 1 3 0.0 -95.000000 -86.555556 31.666667
290 1 3 0.0 -95.000000 -86.555556 35.392157
291 1 3 0.0 -95.000000 -86.555556 39.117647
292 1 3 0.0 -95.000000 -86.555556 42.843137
293 1 3 0.0 -95.000000 -86.555556 46.568627
294 1 3 0.0 -95.000000 -86.555556 50.294118
295 1 3 0.0 -95.000000 -86.555556 54.019608
296 1 3 0.0 -95.000000 -86.555556 57.745098
297 1 3 0.0 -95.000000 -86.555556 61.470588
298 1 3 0.0 -95.000000 -86.555556 65.196078
299 1 3 0.0 -95.000000 -86.555556 68.921569
300 1 3 0.0 -95.000000 -86.555556 72.647059
301 1 3 0.0 -95.000000 -86.555556 76.372549
302 1 3 0.0 -95.000000 -86.555556 80.098039
303 1 3 0.0 -95.000000 -86.555556 83.823529
304 1 3 0.0 -95.000000 -86.555556 87.549020
305 1 3 0.0 -95.000000 -86.555556 91.274510
306 1 3 0.0 -95.000000 -86.555556 95.000000
307 1 3 0.0 -95.000000 -82.333333 -95.000000
308 1 3 0.0 -95.000000 -82.333333 -91.274510
309 1 3 0.0 -95.000000 -82.333333 -87.549020
310 1 3 0.0 -95.000000 -82.333333 -83.823529
311 1 3 0.0 -95.000000 -82.333333 -80.098039
312 1 3 0.0 -95.000000 -82.333333 -76.372549
313 1 3 0.0 -95.000000 -82.333333 -72.647059
314 1 3 0.0 -95.000000 -82.333333 -68.921569
315 1 3 0.0 -95.000000 -82.333333 -65.196078
316 1 3 0.0 -95.000000 -82.333333 -61.470588
317 1 3 0.0 -95.000000 -82.333333 -57.745098
318 1 3 0.0 -95.000000 -82.333333 -54.019608
319 1 3 0.0 -95.000000 -82.333333 -50.294118
320 1 3 0.0 -95.000000 -82.333333 -46.568627
321 1 3 0.0 -95.000000 -82.333333 -42.843137
322 1 3 0.0 -95.000000 -82.333333 -39.117647
323 1 3 0.0 -95.000000 -82.333333 -35.392157
324 1 3 0.0 -95.000000 -82.333333 -31.666667
325 1 3 0.0 -95.000000 -82.333333 -27.941176
326 1 3 0.0 -95.000000 -82.333333 -24.215686
327 1 3 0.0 -95.000000 -82.333333 -20.490196
328 1 3 0.0 -95.000000 -82.333333 -16.764706
329 1 3 0.0 -95.000000 -82.333333 -13.039216
330 1 3 0.0 -95.000000 -82.333333 -9.313725
331 1 3 0.0 -95.000000 -82.333333 -5.588235
332 1 3 0.0 -95.000000 -82.333333 -1.862745
333 1 3 0.0 -95.000000 -82.333333 1.862745
334 1 3 0.0 -95.000000 -82.333333 5.588235
335 1 3 0.0 -95.000000 -82.333333 9.313725
336 1 3 0.0 -95.000000 -82.333333 13.039216
337 1 3 0.0 -95.000000 -82.333333 16.764706
338 1 3 0.0 -95.000000 -82.333333 20.490196
339 1 3 0.0 -95.000000 -82.333333 24.215686
340 1 3 0.0 -95.000000 -82.333333 27.941176
341 1 3 0.0 -95.000000 -82.333333 31.666667
342 1 3 0.0 -95.000000 -82.333333 35.392157
343 1 3 0.0 -95.000000 -82.333333 39.117647
344 1 3 0.0 -95.000000 -82.333333 42.843137
345 1 3 0.0 -95.000000 -82.333333 46.568627
346 1 3 0.0 -95.000000 -82.333333 50.294118
347 1 3 0.0 -95.000000 -82.333333 54.019608
348 1 3 0.0 -95.000000 -82.333333 57.745098
349 1 3 0.0 -95.000000 -82.333333 61.470588
350 1 3 0.0 -95.000000 -82.333333 65.196078
351 1 3 0.0 -95.000000 -82.333333 68.921569
352 1 3 0.0 -95.000000 -82.333333 72.647059
353 1 3 0.0 -95.000000 -82.333333 76.372549
354 1 3 0.0 -95.000000 -82.333333 80.098039
355 1 3 0.0 -95.000000 -82.333333 83.823529
356 1 3 0.0 -95.000000 -82.333333 87.549020
357 1 3 0.0 -95.000000 -82.333333 91.274510
358 1 3 0.0 -95.000000 -82.333333 95.000000
359 1 3 0.0 -95.000000 -78.111111 -95.000000
360 1 3 0.0 -95.000000 -78.111111 -91.274510
361 1 3 0.0 -95.000000 -78.111111 -87.549020
362 1 3 0.0 -95.000000 -78.111111 -83.823529
363 1 3 0.0 -95.000000 -78.111111 -80.098039
364 1 3 0.0 -95.000000 -78.111111 -76.372549
365 1 3 0.0 -95.000000 -78.111111 -72.647059
366 1 3 0.0 -95.000000 -78.111111 -68.921569
367 1 3 0.0 -95.000000 -78.111111 -65.196078
368 1 3 0.0 -95.000000 -78.111111 -61.470588
369 1 3 0.0 -95.000000 -78.111111 -57.745098
370 1 3 0.0 -95.000000 -78.111111 -54.019608
371 1 3 0.0 -95.000000 -78.111111 -50.294118
372 1 3 0.0 -95.000000 -78.111111 -46.568627
373 1 3 0.0 -95.000000 -78.111111 -42.843137
374 1 3 0.0 -95.000000 -78.111111 -39.117647
375 1 3 0.0 -95.000000 -78.111111 -35.392157
376 1 3 0.0 -95.000000 -78.111111 -31.666667
377 1 3 0.0 -95.000000 -78.111111 -27.941176
378 1 3 0.0 -95.000000 -78.111111 -24.215686
379 1 3 0.0 -95.000000 -78.111111 -20.490196
380 1 3 0.0 -95.000000 -78.111111 -16.764706
381 1 3 0.0 -95.000000 -78.111111 -13.039216
382 1 3 0.0 -95.000000 -78.111111 -9.313725
383 1 3 0.0 -95.000000 -78.111111 -5.588235
384 1 3 0.0 -95.000000 -78.111111 -1.862745
385 1 3 0.0 -95.000000 -78.111111 1.862745
386 1 3 0.0 -95.000000 -78.111111 5.588235
387 1 3 0.0 -95.000000 -78.111111 9.313725
388 1 3 0.0 -95.000000 -78.111111 13.039216
389 1 3 0.0 -95.000000 -78.111111 16.764706
390 1 3 0.0 -95.000000 -78.111111 20.490196
391 1 3 0.0 -95.000000 -78.111111 24.215686
392 1 3 0.0 -95.000000 -78.111111 27.941176
393 1 3 0.0 -95.000000 -78.111111 31.666667
394 1 3 0.0 -95.000000 -78.111111 35.392157
395 1 3 0.0 -95.000000 -78.111111 39.117647
396 1 3 0.0 -95.000000 -78.111111 42.843137
397 1 3 0.0 -95.000000 -78.111111 46.568627
398 1 3 0.0 -95.000000 -78.111111 50.294118
399 1 3 0.0 -95.000000 -78.111111 54.019608
400 1 3 0.0 -95.000000 -78.111111 57.745098
401 1 3 0.0 -95.000000 -78.111111 61.470588
402 1 3 0.0 -95.000000 -78.111111 65.196078
403 1 3 0.0 -95.000000 -78.111111 68.921569
404 1 3 0.0 -95.000000 -78.111111 72.647059
405 1 3 0.0 -95.000000 -78.111111 76.372549
406 1 3 0.0 -95.000000 -78.111111 80.098039
407 1 3 0.0 -95.000000 -78.111111 83.823529
408 1 3 0.0 -95.000000 -78.111111 87.549020
409 1 3 0.0 -95.000000 -78.111111 91.274510
410 1 3 0.0 -95.000000 -78.111111 95.000000
411 1 3 0.0 -95.000000 -73.888889 -95.000000
412 1 3 0.0 -95.000000 -73.888889 -91.274510
413 1 3 0.0 -95.000000 -73.888889 -87.549020
414 1 3 0.0 -95.000000 -73.888889 -83.823529
415 1 3 0.0 -95.000000 -73.888889 -80.098039
416 1 3 0.0 -95.000000 -73.888889 -76.372549
417 1 3 0.0 -95.000000 -73.888889 -72.647059
418 1 3 0.0 -95.000000 -73.888889 -68.921569
419 1 3 0.0 -95.000000 -73.888889 -65.196078
420 1 3 0.0 -95.000000 -73.888889 -61.470588
421 1 3 0.0 -95.000000 -73.888889 -57.745098
422 1 3 0.0 -95.000000 -73.888889 -54.019608
423 1 3 0.0 -95.000000 -73.888889 -50.294118
424 1 3 0.0 -95.000000 -73.888889 -46.568627
425 1 3 0.0 -95.000000 -73.888889 -42.843137
426 1 3 0.0 -95.000000 -73.888889 -39.117647
427 1 3 0.0 -95.000000 -73.888889 -35.392157
428 1 3 0.0 -95.000000 -73.888889 -31.666667
429 1 3 0.0 -95.000000 -73.888889 -27.941176
430 1 3 0.0 -95.000000 -73.888889 -24.215686
431 1 3 0.0 -95.000000 -73.888889 -20.490196
432 1 3 0.0 -95.000000 -73.888889 -16.764706
433 1 3 0.0 -95.000000 -73.888889 -13.039216
434 1 3 0.0 -95.000000 -73.888889 -9.313725
435 1 3 0.0 -95.000000 -73.888889 -5.588235
436 1 3 0.0 -95.000000 -73.888889 -1.862745
437 1 3 0.0 -95.000000 -73.888889 1.862745
438 1 3 0.0 -95.000000 -73.888889 5.588235
439 1 3 0.0 -95.000000 -73.888889 9.313725
440 1 3 0.0 -95.000000 -73.888889 13.039216
441 1 3 0.0 -95.000000 -73.888889 16.764706
442 1 3 0.0 -95.000000 -73.888889 20.490196
443 1 3 0.0 -95.000000 -73.888889 24.215686
444 1 3 0.0 -95.000000 -73.888889 27.941176
445 1 3 0.0 -95.000000 -73.888889 31.666667
446 1 3 0.0 -95.000000 -73.888889 35.392157
447 1 3 0.0 -95.000000 -73.888889 39.117647
448 1 3 0.0 -95.000000 -73.888889 42.843137
449 1 3 0.0 -95.000000 -73.888889 46.568627
450 1 3 0.0 -95.000000 -73.888889 50.294118
451 1 3 0.0 -95.000000 -73.888889 54.019608
452 1 3 0.0 -95.000000 -73.888889 57.745098
453 1 3 0.0 -95.000000 -73.888889 61.470588
454 1 3 0.0 -95.000000 -73.888889 65.196078
455 1 3 0.0 -95.000000 -73.888889 68.921569
456 1 3 0.0 -95.000000 -73.888889 72.647059
457 1 3 0.0 -95.000000 -73.888889 76.372549
458 1 3 0.0 -95.000000 -73.888889 80.098039
459 1 3 0.0 -95.000000 -73.888889 83.823529
460 1 3 0.0 -95.000000 -73.888889 87.549020
461 1 3 0.0 -95.000000 -73.888889 91.274510
462 1 3 0.0 -95.000000 -73.888889 95.000000
463 1 3 0.0 -95.000000 -69.666667 -95.000000
464 1 3 0.0 -95.000000 -69.666667 -91.274510
465 1 3 0.0 -95.000000 -69.666667 -87.549020
466 1 3 0.0 -95.000000 -69.666667 -83.823529
467 1 3 0.0 -95.000000 -69.666667 -80.098039
468 1 3 0.0 -95.000000 -69.666667 -76.372549
469 1 3 0.0 -95.000000 -69.666667 -72.647059
470 1 3 0.0 -95.000000 -69.666667 -68.921569
471 1 3 0.0 -95.000000 -69.666667 -65.196078
472 1 3 0.0 -95.000000 -69.666667 -61.470588
473 1 3 0.0 -95.000000 -69.666667 -57.745098
474 1 3 0.0 -95.000000 -69.666667 -54.019608
475 1 3 0.0 -95.000000 -69.666667 -50.294118
476 1 3 0.0 -95.000000 -69.666667 -46.568627
477 1 3 0.0 -95.000000 -69.666667 -42.843137
478 1 3 0.0 -95.000000 -69.666667 -39.117647
479 1 3 0.0 -95.000000 -69.666667 -35.392157
480 1 3 0.0 -95.000000 -69.666667 -31.666667
481 1 3 0.0 -95.000000 -69.666667 -27.941176
482 1 3 0.0 -95.000000 -69.666667 -24.215686
483 1 3 0.0 -95.000000 -69.666667 -20.490196
484 1 3 0.0 -95.000000 -69.666667 -16.764706
485 1 3 0.0 -95.000000 -69.666667 -13.039216
486 1 3 0.0 -95.000000 -69.666667 -9.313725
487 1 3 0.0 -95.000000 -69.666667 -5.588235
488 1 3 0.0 -95.000000 -69.666667 -1.862745
489 1 3 0.0 -95.000000 -69.666667 1.862745
490 1 3 0.0 -95.000000 -69.666667 5.588235
491 1 3 0.0 -95.000000 -69.666667 9.313725
492 1 3 0.0 -95.000000 -69.666667 13.039216
493 1 3 0.0 -95.000000 -69.666667 16.764706
494 1 3 0.0 -95.000000 -69.666667 20.490196
495 1 3 0.0 -95.000000 -69.666667 24.215686
496 1 3 0.0 -95.000000 -69.666667 27.941176
497 1 3 0.0 -95.000000 -69.666667 31.666667
498 1 3 0.0 -95.000000 -69.666667 35.392157
499 1 3 0.0 -95.000000 -69.666667 39.117647
500 1 3 0.0 -95.000000 -69.666667 42.843137
501 1 3 0.0 -95.000000 -69.666667 46.568627
502 1 3 0.0 -95.000000 -69.666667 50.294118
503 1 3 0.0 -95.000000 -69.666667 54.019608
504 1 3 0.0 -95.000000 -69.666667 57.745098
505 1 3 0.0 -95.000000 -69.666667 61.470588
506 1 3 0.0 -95.000000 -69.666667 65.196078
507 1 3 0.0 -95.000000 -69.666667 68.921569
508 1 3 0.0 -95.000000 -69.666667 72.647059
509 1 3 0.0 -95.000000 -69.666667 76.372549
510 1 3 0.0 -95.000000 -69.666667 80.098039
511 1 3 0.0 -95.000000 -69.666667 83.823529
512 1 3 0.0 -95.000000 -69.666667 87.549020
513 1 3 0.0 -95.000000 -69.666667 91.274510
514 1 3 0.0 -95.000000 -69.666667 95.000000
515 1 3 0.0 -95.000000 -65.444444 -95.000000
516 1 3 0.0 -95.000000 -65.444444 -91.274510
517 1 3 0.0 -95.000000 -65.444444 -87.549020
518 1 3 0.0 -95.000000 -65.444444 -83.823529
519 1 3 0.0 -95.000000 -65.444444 -80.098039
520 1 3 0.0 -95.000000 -65.444444 -76.372549
521 1 3 0.0 -95.000000 -65.444444 -72.647059
522 1 3 0.0 -95.000000 -65.444444 -68.921569
523 1 3 0.0 -95.000000 -65.444444 -65.196078
524 1 3 0.0 -95.000000 -65.444444 -61.470588
525 1 3 0.0 -95.000000 -65.444444 -57.745098
526 1 3 0.0 -95.000000 -65.444444 -54.019608
527 1 3 0.0 -95.000000 -65.444444 -50.294118
528 1 3 0.0 -95.000000 -65.444444 -46.568627
529 1 3 0.0 -95.000000 -65.444444 -42.843137
530 1 3 0.0 -95.000000 -65.444444 -39.117647
531 1 3 0.0 -95.000000 -65.444444 -35.392157
532 1 3 0.0 -95.000000 -65.444444 -31.666667
533 1 3 0.0 -95.000000 -65.444444 -27.941176
534 1 3 0.0 -95.000000 -65.444444 -24.215686
535 1 3 0.0 -95.000000 -65.444444 -20.490196
536 1 3 0.0 -95.000000 -65.444444 -16.764706
537 1 3 0.0 -95.000000 -65.444444 -13.039216
538 1 3 0.0 -95.000000 -65.444444 -9.313725
539 1 3 0.0 -95.000000 -65.444444 -5.588235
540 1 3 0.0 -95.000000 -65.444444 -1.862745
541 1 3 0.0 -95.000000 -65.444444 1.862745
542 1 3 0.0 -95.000000 -65.444444 5.588235
543 1 3 0.0 -95.000000 -65.444444 9.313725
544 1 3 0.0 -95.000000 -65.444444 13.039216
545 1 3 0.0 -95.000000 -65.444444 16.764706
546 1 3 0.0 -95.000000 -65.444444 20.490196
547 1 3 0.0 -95.000000 -65.444444 24.215686
548 1 3 0.0 -95.000000 -65.444444 27.941176
549 1 3 0.0 -95.000000 -65.444444 31.666667
550 1 3 0.0 -95.000000 -65.444444 35.392157
551 1 3 0.0 -95.000000 -65.444444 39.117647
552 1 3 0.0 -95.000000 -65.444444 42.843137
553 1 3 0.0 -95.000000 -65.444444 46.568627
554 1 3 0.0 -95.000000 -65.444444 50.294118
555 1 3 0.0 -95.000000 -65.444444 54.019608
556 1 3 0.0 -95.000000 -65.444444 57.745098
557 1 3 0.0 -95.000000 -65.444444 61.470588
558 1 3 0.0 -95.000000 -65.444444 65.196078
559 1 3 0.0 -95.000000 -65.444444 68.921569
560 1 3 0.0 -95.000000 -65.444444 72.647059
561 1 3 0.0 -95.000000 -65.444444 76.372549
562 1 3 0.0 -95.000000 -65.444444 80.098039
563 1 3 0.0 -95.000000 -65.444444 83.823529
564 1 3 0.0 -95.000000 -65.444444 87.549020
565 1 3 0.0 -95.000000 -65.444444 91.274510
566 1 3 0.0 -95.000000 -65.444444 95.000000
567 1 3 0.0 -95.000000 -61.222222 -95.000000
568 1 3 0.0 -95.000000 -61.222222 -91.274510
569 1 3 0.0 -95.000000 -61.222222 -87.549020
570 1 3 0.0 -95.000000 -61.222222 -83.823529
571 1 3 0.0 -95.000000 -61.222222 -80.098039
572 1 3 0.0 -95.000000 -61.222222 -76.372549
573 1 3 0.0 -95.000000 -61.222222 -72.647059
574 1 3 0.0 -95.000000 -61.222222 -68.921569
575 1 3 0.0 -95.000000 -61.222222 -65.196078
576 1 3 0.0 -95.000000 -61.222222 -61.470588
577 1 3 0.0 -95.000000 -61.222222 -57.745098
578 1 3 0.0 -95.000000 -61.222222 -54.019608
579 1 3 0.0 -95.000000 -61.222222 -50.294118
580 1 3 0.0 -95.000000 -61.222222 -46.568627
581 1 3 0.0 -95.000000 -61.222222 -42.843137
582 1 3 0.0 -95.000000 -61.222222 -39.117647
583 1 3 0.0 -95.000000 -61.222222 -35.392157
584 1 3 0.0 -95.000000 -61.222222 -31.666667
585 1 3 0.0 -95.000000 -61.222222 -27.941176
586 1 3 0.0 -95.000000 -61.222222 -24.215686
587 1 3 0.0 -95.000000 -61.222222 -20.490196
588 1 3 0.0 -95.000000 -61.222222 -16.764706
589 1 3 0.0 -95.000000 -61.222222 -13.039216
590 1 3 0.0 -95.000000 -61.222222 -9.313725
591 1 3 0.0 -95.000000 -61.222222 -5.588235
592 1 3 0.0 -95.000000 -61.222222 -1.862745
593 1 3 0.0 -95.000000 -61.222222 1.862745
594 1 3 0.0 -95.000000 -61.222222 5.588235
595 1 3 0.0 -95.000000 -61.222222 9.313725
596 1 3 0.0 -95.000000 -61.222222 13.039216
597 1 3 0.0 -95.000000 -61.222222 16.764706
598 1 3 0.0 -95.000000 -61.222222 20.490196
599 1 3 0.0 -95.000000 -61.222222 24.215686
600 1 3 0.0 -95.000000 -61.222222 27.941176
601 1 3 0.0 -95.000000 -61.222222 31.666667
602 1 3 0.0 -95.000000 -61.222222 35.392157
603 1 3 0.0 -95.000000 -61.222222 39.117647
604 1 3 0.0 -95.000000 -61.222222 42.843137
605 1 3 0.0 -95.000000 -61.222222 46.568627
606 1 3 0.0 -95.000000 -61.222222 50.294118
607 1 3 0.0 -95.000000 -61.222222 54.019608
608 1 3 0.0 -95.000000 -61.222222 57.745098
609 1 3 0.0 -95.000000 -61.222222 61.470588
610 1 3 0.0 -95.000000 -61.222222 65.196078
611 1 3 0.0 -95.000000 -61.222222 68.921569
612 1 3 0.0 -95.000000 -61.222222 72.647059
613 1 3 0.0 -95.000000 -61.222222 76.372549
614 1 3 0.0 -95.000000 -61.222222 80.098039
615 1 3 0.0 -95.000000 -61.222222 83.823529
616 1 3 0.0 -95.000000 -61.222222 87.549020
617 1 3 0.0 -95.000000 -61.222222 91.274510
618 1 3 0.0 -95.000000 -61.222222 95.000000
619 1 3 0.0 -95.000000 -57.000000 -95.000000
620 1 3 0.0 -95.000000 -57.000000 -91.274510
621 1 3 0.0 -95.000000 -57.000000 -87.549020
622 1 3 0.0 -95.000000 -57.000000 -83.823529
623 1 3 0.0 -95.000000 -57.000000 -80.098039
624 1 3 0.0 -95.000000 -57.000000 -76.372549
625 1 3 0.0 -95.000000 -57.000000 -72.647059
626 1 3 0.0 -95.000000 -57.000000 -68.921569
627 1 3 0.0 -95.000000 -57.000000 -65.196078
628 1 3 0.0 -95.000000 -57.000000 -61.470588
629 1 3 0.0 -95.000000 -57.000000 -57.745098
630 1 3 0.0 -95.000000 -57.000000 -54.019608
631 1 3 0.0 -95.000000 -57.000000 -50.294118
632 1 3 0.0 -95.000000 -57.000000 -46.568627
633 1 3 0.0 -95.000000 -57.000000 -42.843137
634 1 3 0.0 -95.000000 -57.000000 -39.117647
635 1 3 0.0 -95.000000 -57.000000 -35.392157
636 1 3 0.0 -95.000000 -57.000000 -31.666667
637 1 3 0.0 -95.000000 -57.000000 -27.941176
638 1 3 0.0 -95.000000 -57.000000 -24.215686
639 1 3 0.0 -95.000000 -57.000000 -20.490196
640 1 3 0.0 -95.000000 -57.000000 -16.764706
641 1 3 0.0 -95.000000 -57.000000 -13.039216
642 1 3 0.0 -95.000000 -57.000000 -9.313725
643 1 3 0.0 -95.000000 -57.000000 -5.588235
644 1 3 0.0 -95.000000 -57.000000 -1.862745
645 1 3 0.0 -95.000000 -57.000000 1.862745
646 1 3 0.0 -95.000000 -57.000000 5.588235
647 1 3 0.0 -95.000000 -57.000000 9.313725
648 1 3 0.0 -95.000000 -57.000000 13.039216
649 1 3 0.0 -95.000000 -57.000000 16.764706
650 1 3 0.0 -95.000000 -57.000000 20.490196
651 1 3 0.0 -95.000000 -57.000000 24.215686
652 1 3 0.0 -95.000000 -57.000000 27.941176
653 1 3 0.0 -95.000000 -57.000000 31.666667
654 1 3 0.0 -95.000000 -57.000000 35.392157
655 1 3 0.0 -95.000000 -57.000000 39.117647
656 1 3 0.0 -95.000000 -57.000000 42.843137
657 1 3 0.0 -95.000000 -57.000000 46.568627
658 1 3 0.0 -95.000000 -57.000000 50.294118
659 1 3 0.0 -95.000000 -57.000000 54.019608
660 1 3 0.0 -95.000000 -57.000000 57.745098